 Entering Gaussian System
 *********************************************
 Gaussian 98:
 frequency output generated by the xtb code
 *********************************************
                         Standard orientation:
 --------------------------------------------------------------------
  Center     Atomic     Atomic              Coordinates (Angstroms)
  Number     Number      Type              X           Y           Z
 --------------------------------------------------------------------
    1          6             0       -0.518477   -1.703652   -0.210579
    2          6             0        0.729179   -1.009571   -0.076247
    3          6             0       -0.057375    1.273184   -0.094296
    4          8             0        0.951894    0.233655   -0.054690
    5          8             0       -1.154941    1.082411    0.255890
    6          1             0       -0.396646   -2.596954   -0.831410
    7          1             0       -0.773742   -2.122431    0.777640
    8          1             0       -1.362873   -1.089008   -0.524378
    9          1             0        1.650619   -1.599286    0.006714
   10          1             0        0.435914    2.179822   -0.455246
 --------------------------------------------------------------------
     1 basis functions        1 primitive gaussians
     1 alpha electrons        1 beta electrons

 Harmonic frequencies (cm**-1), IR intensities (km*mol⁻¹),
 Raman scattering activities (A**4/amu), Raman depolarization ratios,
 reduced masses (AMU), force constants (mDyne/A) and normal coordinates:
                      1                      2                      3
                        a                      a                      a 
 Frequencies --   103.2959               120.6997               221.2034
 Red. masses --     9.6121                 5.1269                 8.4928
 Frc consts  --     0.0000                 0.0000                 0.0000
 IR Inten    --    21.2948                16.8214                 8.9806
 Raman Activ --     0.0000                 0.0000                 0.0000
 Depolar     --     0.0000                 0.0000                 0.0000
 Atom AN      X      Y      Z        X      Y      Z        X      Y      Z
   1   6    -0.12   0.16   0.27     0.08  -0.25   0.13    -0.19   0.39   0.03
   2   6    -0.00   0.05  -0.27    -0.01  -0.06  -0.09    -0.05   0.13   0.14
   3   6     0.11   0.03   0.39     0.04   0.11   0.11    -0.02  -0.16  -0.21
   4   8     0.12   0.05  -0.03    -0.10  -0.06   0.06     0.20   0.10   0.09
   5   8    -0.10  -0.33  -0.43    -0.08   0.34  -0.20     0.09  -0.46   0.01
   6   1    -0.12  -0.02   0.16    -0.02   0.15  -0.30    -0.12   0.29  -0.28
   7   1     0.01   0.18   0.15     0.33  -0.50  -0.06     0.09  -0.24  -0.11
   8   1    -0.04   0.05   0.10    -0.10  -0.06   0.42    -0.09   0.19   0.27
   9   1     0.00  -0.01  -0.26     0.02   0.00  -0.12    -0.05  -0.02   0.04
  10   1     0.07   0.09   0.38     0.09   0.02   0.10    -0.11  -0.04  -0.18
                      4                      5                      6
                        a                      a                      a 
 Frequencies --   286.8945               462.2757               679.4211
 Red. masses --     9.4878                10.8129                13.2344
 Frc consts  --     0.0000                 0.0000                 0.0000
 IR Inten    --    12.6551                 1.6357               185.6668
 Raman Activ --     0.0000                 0.0000                 0.0000
 Depolar     --     0.0000                 0.0000                 0.0000
 Atom AN      X      Y      Z        X      Y      Z        X      Y      Z
   1   6    -0.03  -0.06  -0.02    -0.12  -0.36  -0.04     0.14   0.10   0.00
   2   6    -0.14   0.04   0.40    -0.41   0.28  -0.12    -0.00   0.04   0.05
   3   6     0.09   0.17   0.20     0.19   0.18  -0.10     0.36  -0.47   0.02
   4   8    -0.02   0.06  -0.58    -0.02   0.26   0.24    -0.67   0.23  -0.03
   5   8     0.08  -0.17  -0.03     0.33  -0.25  -0.00     0.18  -0.01  -0.04
   6   1     0.14   0.04  -0.08     0.13  -0.14   0.08    -0.01   0.03  -0.01
   7   1    -0.08  -0.20  -0.10     0.09  -0.05   0.05    -0.03   0.02  -0.02
   8   1    -0.00  -0.05  -0.07    -0.17  -0.30  -0.03     0.08   0.12   0.05
   9   1    -0.06   0.01   0.38    -0.11   0.08  -0.06     0.10   0.16  -0.07
  10   1     0.05   0.14   0.33    -0.03   0.06  -0.10     0.07  -0.08   0.06
                      7                      8                      9
                        a                      a                      a 
 Frequencies --   701.7353               752.4867               927.7427
 Red. masses --     2.6262                11.2192                 6.1360
 Frc consts  --     0.0000                 0.0000                 0.0000
 IR Inten    --    39.5178               159.5177                 4.6487
 Raman Activ --     0.0000                 0.0000                 0.0000
 Depolar     --     0.0000                 0.0000                 0.0000
 Atom AN      X      Y      Z        X      Y      Z        X      Y      Z
   1   6    -0.03  -0.12   0.21    -0.05   0.04  -0.06     0.03  -0.04  -0.17
   2   6    -0.05   0.06   0.13    -0.18   0.22  -0.02    -0.02  -0.05   0.22
   3   6     0.01  -0.06   0.07     0.06  -0.62   0.15     0.14   0.15   0.51
   4   8     0.16   0.08  -0.06     0.38   0.14  -0.11    -0.03   0.01  -0.18
   5   8    -0.05   0.05  -0.02    -0.25   0.28  -0.00    -0.04  -0.04  -0.16
   6   1     0.28   0.10  -0.10     0.15  -0.04   0.08    -0.15  -0.07   0.01
   7   1    -0.57  -0.23  -0.19     0.18   0.00   0.04     0.14   0.11   0.05
   8   1     0.11   0.04  -0.14    -0.16  -0.21  -0.03    -0.01   0.04   0.08
   9   1     0.05   0.03  -0.55    -0.12  -0.03   0.11     0.02   0.01  -0.08
  10   1    -0.04  -0.05  -0.13    -0.02  -0.15   0.01    -0.18  -0.15  -0.65
                     10                     11                     12
                        a                      a                      a 
 Frequencies --   958.2342               983.0100              1165.9886
 Red. masses --     6.0503                 6.6733                 8.5826
 Frc consts  --     0.0000                 0.0000                 0.0000
 IR Inten    --    13.5030                 5.2839                32.7873
 Raman Activ --     0.0000                 0.0000                 0.0000
 Depolar     --     0.0000                 0.0000                 0.0000
 Atom AN      X      Y      Z        X      Y      Z        X      Y      Z
   1   6     0.05  -0.02  -0.30     0.14   0.47   0.06     0.51  -0.04   0.05
   2   6    -0.10  -0.01   0.53    -0.11  -0.03  -0.00    -0.56   0.17  -0.09
   3   6    -0.08  -0.02  -0.21    -0.03   0.13   0.04    -0.02  -0.00  -0.01
   4   8     0.07  -0.01  -0.07    -0.21  -0.35  -0.00     0.08  -0.21   0.00
   5   8     0.00   0.02   0.06     0.05  -0.06  -0.02    -0.03  -0.00   0.01
   6   1    -0.12  -0.09   0.04     0.56   0.13   0.10    -0.06   0.03  -0.06
   7   1     0.24   0.20   0.08     0.22  -0.02  -0.00    -0.03   0.11   0.02
   8   1    -0.08  -0.01   0.15    -0.16  -0.23  -0.12     0.35   0.34   0.11
   9   1     0.03  -0.02  -0.56    -0.09  -0.12  -0.15    -0.23  -0.05   0.05
  10   1     0.07   0.07   0.27     0.10  -0.07  -0.09     0.03  -0.02   0.00
                     13                     14                     15
                        a                      a                      a 
 Frequencies --  1215.7153              1255.1788              1276.7590
 Red. masses --     2.3243                 2.7908                 2.7069
 Frc consts  --     0.0000                 0.0000                 0.0000
 IR Inten    --    83.3307               266.0637                49.1505
 Raman Activ --     0.0000                 0.0000                 0.0000
 Depolar     --     0.0000                 0.0000                 0.0000
 Atom AN      X      Y      Z        X      Y      Z        X      Y      Z
   1   6    -0.08  -0.11   0.03    -0.21  -0.16   0.11    -0.00   0.18  -0.08
   2   6     0.06   0.21   0.02    -0.05   0.07   0.02    -0.19  -0.02  -0.02
   3   6    -0.15   0.07   0.02     0.03  -0.05   0.01    -0.03   0.03  -0.01
   4   8     0.01   0.01  -0.04     0.04  -0.22  -0.00     0.13  -0.19   0.01
   5   8    -0.05  -0.11   0.04     0.02   0.04  -0.02    -0.02  -0.01   0.01
   6   1    -0.08   0.08  -0.15     0.17   0.31  -0.40    -0.06  -0.24   0.35
   7   1     0.02   0.09   0.06     0.23   0.32   0.23     0.02  -0.31  -0.15
   8   1     0.01  -0.02  -0.08     0.11   0.05  -0.24    -0.00   0.06   0.04
   9   1     0.05   0.11   0.02     0.25   0.41   0.00     0.37   0.65   0.03
  10   1     0.77  -0.46  -0.09    -0.22   0.12   0.03     0.05  -0.03  -0.01
                     16                     17                     18
                        a                      a                      a 
 Frequencies --  1305.8634              1381.8331              1516.2006
 Red. masses --     1.5595                 4.4910                10.8443
 Frc consts  --     0.0000                 0.0000                 0.0000
 IR Inten    --    64.2779                56.7129               421.3382
 Raman Activ --     0.0000                 0.0000                 0.0000
 Depolar     --     0.0000                 0.0000                 0.0000
 Atom AN      X      Y      Z        X      Y      Z        X      Y      Z
   1   6     0.07  -0.06  -0.17    -0.30  -0.11  -0.09    -0.24  -0.14  -0.09
   2   6     0.03  -0.00  -0.04    -0.03  -0.30  -0.04     0.31   0.67   0.04
   3   6    -0.00   0.02   0.00     0.00   0.03  -0.02    -0.03  -0.05   0.03
   4   8     0.02  -0.08  -0.01     0.05   0.28   0.01    -0.13  -0.41  -0.01
   5   8    -0.01   0.00   0.00    -0.05  -0.02   0.02     0.08   0.02  -0.03
   6   1     0.29   0.06  -0.06     0.52  -0.08   0.17     0.09  -0.14   0.18
   7   1    -0.41   0.36   0.02     0.23  -0.02   0.07     0.03  -0.10  -0.04
   8   1    -0.30  -0.06   0.64     0.25   0.49   0.14     0.10   0.23   0.11
   9   1     0.09   0.15   0.15    -0.01  -0.07   0.02    -0.09  -0.11  -0.02
  10   1     0.01  -0.01   0.00     0.11  -0.05  -0.02    -0.10   0.03   0.02
                     19                     20                     21
                        a                      a                      a 
 Frequencies --  1862.4410              2860.3109              2917.1071
 Red. masses --    13.3503                 1.8011                 1.8169
 Frc consts  --     0.0000                 0.0000                 0.0000
 IR Inten    --   228.7200                90.9726                15.1863
 Raman Activ --     0.0000                 0.0000                 0.0000
 Depolar     --     0.0000                 0.0000                 0.0000
 Atom AN      X      Y      Z        X      Y      Z        X      Y      Z
   1   6    -0.02  -0.01   0.00     0.05   0.06  -0.26    -0.02   0.02   0.02
   2   6     0.05   0.07   0.00     0.02   0.00  -0.01     0.23  -0.14   0.02
   3   6     0.66   0.16  -0.22    -0.00   0.00  -0.00    -0.00  -0.00   0.00
   4   8     0.00  -0.10   0.01    -0.00  -0.01  -0.00     0.00  -0.01   0.00
   5   8    -0.62  -0.12   0.20     0.00  -0.00  -0.00     0.00   0.00  -0.00
   6   1    -0.01  -0.00  -0.00    -0.02   0.18   0.09     0.01  -0.07  -0.05
   7   1     0.00  -0.01  -0.00    -0.23  -0.36   0.83     0.01   0.02  -0.03
   8   1    -0.01  -0.01  -0.01     0.06  -0.03  -0.01     0.03  -0.02   0.01
   9   1    -0.01  -0.02  -0.01    -0.04   0.03  -0.00    -0.80   0.52  -0.07
  10   1     0.11   0.15  -0.07    -0.00  -0.00   0.00     0.01   0.01  -0.00
                     22                     23                     24
                        a                      a                      a 
 Frequencies --  2946.8038              2973.3568              3028.6713
 Red. masses --     1.9866                 1.5662                 1.8270
 Frc consts  --     0.0000                 0.0000                 0.0000
 IR Inten    --     8.2770                58.0895                15.0993
 Raman Activ --     0.0000                 0.0000                 0.0000
 Depolar     --     0.0000                 0.0000                 0.0000
 Atom AN      X      Y      Z        X      Y      Z        X      Y      Z
   1   6    -0.00   0.01   0.01    -0.02  -0.20  -0.10     0.20  -0.17   0.04
   2   6     0.00   0.00  -0.00     0.01  -0.03  -0.00     0.02  -0.01   0.00
   3   6     0.17   0.22  -0.10     0.01   0.01  -0.00    -0.01   0.00   0.00
   4   8    -0.00   0.01   0.00     0.00   0.01  -0.00     0.00  -0.01  -0.00
   5   8    -0.03  -0.00   0.01    -0.00  -0.00   0.00     0.00  -0.00  -0.00
   6   1     0.00  -0.03  -0.02    -0.11   0.75   0.53    -0.01   0.12   0.09
   7   1    -0.00  -0.00   0.00     0.05   0.06  -0.22     0.01  -0.04   0.04
   8   1    -0.00   0.00  -0.00     0.12  -0.11   0.04    -0.73   0.54  -0.28
   9   1    -0.01   0.01  -0.00    -0.06   0.04  -0.00    -0.05   0.03   0.00
  10   1    -0.43  -0.79   0.31    -0.02  -0.03   0.01     0.00  -0.00   0.00
