      -----------------------------------------------------------      
     |                   =====================                   |     
     |                           x T B                           |     
     |                   =====================                   |     
     |                         S. Grimme                         |     
     |          Mulliken Center for Theoretical Chemistry        |     
     |                    University of Bonn                     |     
      -----------------------------------------------------------      

   * xtb version 6.7.1 (edcfbbe) compiled by 'conda@afd1a870197c' on 2025-04-11

   xtb is free software: you can redistribute it and/or modify it under
   the terms of the GNU Lesser General Public License as published by
   the Free Software Foundation, either version 3 of the License, or
   (at your option) any later version.
   
   xtb is distributed in the hope that it will be useful,
   but WITHOUT ANY WARRANTY; without even the implied warranty of
   MERCHANTABILITY or FITNESS FOR A PARTICULAR PURPOSE.  See the
   GNU Lesser General Public License for more details.
   
   Cite this work as:
   * C. Bannwarth, E. Caldeweyher, S. Ehlert, A. Hansen, P. Pracht,
     J. Seibert, S. Spicher, S. Grimme, WIREs Comput. Mol. Sci., 2020, 11,
     e01493. DOI: 10.1002/wcms.1493
   
   for GFN2-xTB:
   * C. Bannwarth, S. Ehlert and S. Grimme., J. Chem. Theory Comput., 2019,
     15, 1652-1671. DOI: 10.1021/acs.jctc.8b01176
   for GFN1-xTB:
   * S. Grimme, C. Bannwarth, P. Shushkov, J. Chem. Theory Comput., 2017,
     13, 1989-2009. DOI: 10.1021/acs.jctc.7b00118
   for GFN0-xTB:
   * P. Pracht, E. Caldeweyher, S. Ehlert, S. Grimme, ChemRxiv, 2019, preprint.
     DOI: 10.26434/chemrxiv.8326202.v1
   for GFN-FF:
   * S. Spicher and S. Grimme, Angew. Chem. Int. Ed., 2020, 59, 15665-15673.
     DOI: 10.1002/anie.202004239
   
   for ALPB and GBSA implicit solvation:
   * S. Ehlert, M. Stahn, S. Spicher, S. Grimme, J. Chem. Theory Comput.,
     2021, 17, 4250-4261. DOI: 10.1021/acs.jctc.1c00471
   
   for ddCOSMO and CPCM-X implicit solvation:
   * M. Stahn, S. Ehlert, S. Grimme, J. Phys. Chem. A,
     2023, XX, XXXX-XXXX. DOI: 10.1021/acs.jpca.3c04382
   
   for DFT-D4:
   * E. Caldeweyher, C. Bannwarth and S. Grimme, J. Chem. Phys., 2017,
     147, 034112. DOI: 10.1063/1.4993215
   * E. Caldeweyher, S. Ehlert, A. Hansen, H. Neugebauer, S. Spicher,
     C. Bannwarth and S. Grimme, J. Chem. Phys., 2019, 150, 154122.
     DOI: 10.1063/1.5090222
   * E. Caldeweyher, J.-M. Mewes, S. Ehlert and S. Grimme, Phys. Chem. Chem. Phys.
     2020, 22, 8499-8512. DOI: 10.1039/D0CP00502A
   
   for sTDA-xTB:
   * S. Grimme and C. Bannwarth, J. Chem. Phys., 2016, 145, 054103.
     DOI: 10.1063/1.4959605
   
   in the mass-spec context:
   * V. Asgeirsson, C. Bauer and S. Grimme, Chem. Sci., 2017, 8, 4879.
     DOI: 10.1039/c7sc00601b
   * J. Koopman and S. Grimme, ACS Omega 2019, 4, 12, 15120-15133.
     DOI: 10.1021/acsomega.9b02011
   
   for metadynamics refer to:
   * S. Grimme, J. Chem. Theory Comput., 2019, 155, 2847-2862
     DOI: 10.1021/acs.jctc.9b00143
   
   for SPH calculations refer to:
   * S. Spicher and S. Grimme, J. Chem. Theory Comput., 2021, 17, 1701-1714
     DOI: 10.1021/acs.jctc.0c01306
   
   for ONIOM refer to:
   * C. Plett, A. Katbashev, S. Ehlert, S. Grimme, M. Bursch,
     Phys. Chem. Chem. Phys., 2023, 25, 17860-17868. DOI: 10.1039/D3CP02178E
   
   for DIPRO refer to:
   * J. Kohn, N. Gildemeister, S. Grimme, D. Fazzi, A. Hansen,
     J. Chem. Phys., 2023, just accepted.
   
   for PTB refer to:
   * S. Grimme, M. Mueller, A. Hansen, J. Chem. Phys., 2023, 158, 124111.
     DOI: 10.1063/5.0137838
   
   with help from (in alphabetical order)
   P. Atkinson, C. Bannwarth, F. Bohle, G. Brandenburg, E. Caldeweyher
   M. Checinski, S. Dohm, S. Ehlert, S. Ehrlich, I. Gerasimov, C. Hölzer
   A. Katbashev, J. Kohn, J. Koopman, C. Lavigne, S. Lehtola, F. März, M. Müller,
   F. Musil, H. Neugebauer, J. Pisarek, C. Plett, P. Pracht, F. Pultar,
   J. Seibert, P. Shushkov, S. Spicher, M. Stahn, M. Steiner, T. Strunk,
   J. Stückrath, T. Rose, and J. Unsleber
   
 * started run on 2025/06/07 at 21:26:37.894     
   ID    Z sym.   atoms
    1    6 C      1-3
    2    8 O      4, 5
    3    1 H      6-10

           -------------------------------------------------
          |                Calculation Setup                |
           -------------------------------------------------

          program call               : xtb xtbin.xyz --bhess --gfn2 --etemp 300
          coordinate file            : xtbin.xyz
          omp threads                :                     1


           -------------------------------------------------
          |                 G F N 2 - x T B                 |
           -------------------------------------------------

        Reference                      10.1021/acs.jctc.8b01176
      * Hamiltonian:
        H0-scaling (s, p, d)           1.850000    2.230000    2.230000
        zeta-weighting                 0.500000
      * Dispersion:
        s8                             2.700000
        a1                             0.520000
        a2                             5.000000
        s9                             5.000000
      * Repulsion:
        kExp                           1.500000    1.000000
        rExp                           1.000000
      * Coulomb:
        alpha                          2.000000
        third order                    shell-resolved
        anisotropic                    true
        a3                             3.000000
        a5                             4.000000
        cn-shift                       1.200000
        cn-exp                         4.000000
        max-rad                        5.000000


          ...................................................
          :                      SETUP                      :
          :.................................................:
          :  # basis functions                  25          :
          :  # atomic orbitals                  25          :
          :  # shells                           15          :
          :  # electrons                        28          :
          :  max. iterations                   250          :
          :  Hamiltonian                  GFN2-xTB          :
          :  restarted?                      false          :
          :  GBSA solvation                  false          :
          :  PC potential                    false          :
          :  electronic temp.          300.0000000     K    :
          :  accuracy                    1.0000000          :
          :  -> integral cutoff          0.2500000E+02      :
          :  -> integral neglect         0.1000000E-07      :
          :  -> SCF convergence          0.1000000E-05 Eh   :
          :  -> wf. convergence          0.1000000E-03 e    :
          :  Broyden damping             0.4000000          :
          :  net charge                          1          :
          :  unpaired electrons                  0          :
          ...................................................

 iter      E             dE          RMSdq      gap      omega  full diag
   1    -16.7278017 -0.167278E+02  0.565E+00    3.77       0.0  T
   2    -16.7676963 -0.398946E-01  0.299E+00    2.78       1.0  T
   3    -16.7686017 -0.905422E-03  0.175E+00    3.27       1.0  T
   4    -16.7733855 -0.478373E-02  0.191E-01    3.01       1.0  T
   5    -16.7735184 -0.132962E-03  0.829E-02    3.04       1.0  T
   6    -16.7735425 -0.241097E-04  0.268E-02    3.02       1.2  T
   7    -16.7735430 -0.505932E-06  0.137E-02    3.02       2.3  T
   8    -16.7735436 -0.546082E-06  0.345E-03    3.02       9.2  T
   9    -16.7735436 -0.214924E-07  0.127E-03    3.02      24.9  T
  10    -16.7735436 -0.436778E-08  0.479E-04    3.02      66.0  T
  11    -16.7735436 -0.612204E-09  0.226E-04    3.02     139.6  T

   *** convergence criteria satisfied after 11 iterations ***

         #    Occupation            Energy/Eh            Energy/eV
      -------------------------------------------------------------
         1        2.0000           -1.0104070             -27.4946
       ...           ...                  ...                  ...
         8        2.0000           -0.7875224             -21.4296
         9        2.0000           -0.7850401             -21.3620
        10        2.0000           -0.7672112             -20.8769
        11        2.0000           -0.7158121             -19.4782
        12        2.0000           -0.7092573             -19.2999
        13        2.0000           -0.7024663             -19.1151
        14        2.0000           -0.6627989             -18.0357 (HOMO)
        15                         -0.5517203             -15.0131 (LUMO)
        16                         -0.4828966             -13.1403
        17                         -0.2835604              -7.7161
        18                         -0.1147183              -3.1216
        19                         -0.0562583              -1.5309
       ...                                ...                  ...
        25                          0.5469482              14.8832
      -------------------------------------------------------------
                  HL-Gap            0.1110786 Eh            3.0226 eV
             Fermi-level           -0.6072596 Eh          -16.5244 eV

 SCC (total)                   0 d,  0 h,  0 min,  0.007 sec
 SCC setup                      ...        0 min,  0.000 sec (  1.620%)
 Dispersion                     ...        0 min,  0.000 sec (  0.826%)
 classical contributions        ...        0 min,  0.000 sec (  0.291%)
 integral evaluation            ...        0 min,  0.001 sec ( 12.809%)
 iterations                     ...        0 min,  0.004 sec ( 54.550%)
 molecular gradient             ...        0 min,  0.002 sec ( 28.212%)
 printout                       ...        0 min,  0.000 sec (  1.513%)

         :::::::::::::::::::::::::::::::::::::::::::::::::::::
         ::                     SUMMARY                     ::
         :::::::::::::::::::::::::::::::::::::::::::::::::::::
         :: total energy             -16.582084140126 Eh    ::
         :: gradient norm              0.027024324283 Eh/a0 ::
         :: HOMO-LUMO gap              3.022603306007 eV    ::
         ::.................................................::
         :: SCC energy               -16.773541391532 Eh    ::
         :: -> isotropic ES            0.133632942403 Eh    ::
         :: -> anisotropic ES         -0.009538278168 Eh    ::
         :: -> anisotropic XC          0.007202803803 Eh    ::
         :: -> dispersion             -0.003745217717 Eh    ::
         :: repulsion energy           0.191457251406 Eh    ::
         :: add. restraining           0.000000000000 Eh    ::
         :: total charge               1.000000000000 e     ::
         :::::::::::::::::::::::::::::::::::::::::::::::::::::

metadynamics with 1 initial structures loaded
           -------------------------------------------------
          |           Optimal kpush determination           |
           -------------------------------------------------
      ----------------------------------------------------------- 
     |                   =====================                   |
     |                        A N C O P T                        |
     |                   =====================                   |
     |               Approximate Normal Coordinate               |
     |                Rational Function Optimizer                |
      ----------------------------------------------------------- 
target rmsd / Å         0.100000
unbiased initial rmsd   0.184101

iter. min.        max.        rmsd       kpush
      ----------------------------------------------------------- 
     |                   =====================                   |
     |                        A N C O P T                        |
     |                   =====================                   |
     |               Approximate Normal Coordinate               |
     |                Rational Function Optimizer                |
      ----------------------------------------------------------- 
 1    0.000000    0.454545    0.014088   -0.227273
      ----------------------------------------------------------- 
     |                   =====================                   |
     |                        A N C O P T                        |
     |                   =====================                   |
     |               Approximate Normal Coordinate               |
     |                Rational Function Optimizer                |
      ----------------------------------------------------------- 
 2    0.000000    0.227273    0.018893   -0.113636
      ----------------------------------------------------------- 
     |                   =====================                   |
     |                        A N C O P T                        |
     |                   =====================                   |
     |               Approximate Normal Coordinate               |
     |                Rational Function Optimizer                |
      ----------------------------------------------------------- 
 3    0.000000    0.113636    0.027621   -0.056818
      ----------------------------------------------------------- 
     |                   =====================                   |
     |                        A N C O P T                        |
     |                   =====================                   |
     |               Approximate Normal Coordinate               |
     |                Rational Function Optimizer                |
      ----------------------------------------------------------- 
 4    0.000000    0.056818    0.043247   -0.028409
      ----------------------------------------------------------- 
     |                   =====================                   |
     |                        A N C O P T                        |
     |                   =====================                   |
     |               Approximate Normal Coordinate               |
     |                Rational Function Optimizer                |
      ----------------------------------------------------------- 
 5    0.000000    0.028409    0.065557   -0.014205
      ----------------------------------------------------------- 
     |                   =====================                   |
     |                        A N C O P T                        |
     |                   =====================                   |
     |               Approximate Normal Coordinate               |
     |                Rational Function Optimizer                |
      ----------------------------------------------------------- 
 6    0.000000    0.014205    0.096545   -0.007102
      ----------------------------------------------------------- 
     |                   =====================                   |
     |                        A N C O P T                        |
     |                   =====================                   |
     |               Approximate Normal Coordinate               |
     |                Rational Function Optimizer                |
      ----------------------------------------------------------- 
 7    0.000000    0.007102    0.125279   -0.003551
      ----------------------------------------------------------- 
     |                   =====================                   |
     |                        A N C O P T                        |
     |                   =====================                   |
     |               Approximate Normal Coordinate               |
     |                Rational Function Optimizer                |
      ----------------------------------------------------------- 
 8    0.003551    0.007102    0.108341   -0.005327
      ----------------------------------------------------------- 
     |                   =====================                   |
     |                        A N C O P T                        |
     |                   =====================                   |
     |               Approximate Normal Coordinate               |
     |                Rational Function Optimizer                |
      ----------------------------------------------------------- 
 9    0.005327    0.007102    0.102315   -0.006214
      ----------------------------------------------------------- 
     |                   =====================                   |
     |                        A N C O P T                        |
     |                   =====================                   |
     |               Approximate Normal Coordinate               |
     |                Rational Function Optimizer                |
      ----------------------------------------------------------- 
10    0.006214    0.007102    0.099354   -0.006658
final kpush: -0.006658
           -------------------------------------------------
          |            Biased Numerical Hessian             |
           -------------------------------------------------
kpush                :  -0.00666
alpha                :   1.00000
step length          :   0.00500
SCC accuracy         :   0.30000
Hessian scale factor :   1.00000
frozen atoms in %    :   0.00000    0
RMS gradient         :   0.00042
estimated CPU  time      0.00 min
estimated wall time      0.00 min

writing file <hessian>.

 projected vibrational frequencies (cm⁻¹)
eigval :       -0.00    -0.00    -0.00     0.00     0.00     0.00
eigval :      103.30   120.70   221.20   286.89   462.28   679.42
eigval :      701.74   752.49   927.74   958.23   983.01  1165.99
eigval :     1215.72  1255.18  1276.76  1305.86  1381.83  1516.20
eigval :     1862.44  2860.31  2917.11  2946.80  2973.36  3028.67
           -------------------------------------------------
          |                Property Printout                |
           -------------------------------------------------

    * Orbital Energies and Occupations

         #    Occupation            Energy/Eh            Energy/eV
      -------------------------------------------------------------
         1        2.0000           -1.0132641             -27.5723
         2        2.0000           -0.9753037             -26.5394
         3        2.0000           -0.9403270             -25.5876
         4        2.0000           -0.8906304             -24.2353
         5        2.0000           -0.8477956             -23.0697
         6        2.0000           -0.8410003             -22.8848
         7        2.0000           -0.8243635             -22.4321
         8        2.0000           -0.7877600             -21.4360
         9        2.0000           -0.7757372             -21.1089
        10        2.0000           -0.7635794             -20.7781
        11        2.0000           -0.7157856             -19.4775
        12        2.0000           -0.7103009             -19.3283
        13        2.0000           -0.7044709             -19.1696
        14        2.0000           -0.6569700             -17.8771 (HOMO)
        15                         -0.5582087             -15.1896 (LUMO)
        16                         -0.4743949             -12.9089
        17                         -0.2415013              -6.5716
        18                         -0.1112549              -3.0274
        19                         -0.0684691              -1.8631
        20                         -0.0435116              -1.1840
        21                         -0.0371600              -1.0112
        22                         -0.0236871              -0.6446
        23                          0.0773694               2.1053
        24                          0.2407602               6.5514
        25                          0.5093387              13.8598
      -------------------------------------------------------------
                  HL-Gap            0.0987613 Eh            2.6874 eV
             Fermi-level           -0.6075894 Eh          -16.5333 eV

     #   Z          covCN         q      C6AA      α(0)
     1   6 C        3.751    -0.161    23.687     6.941
     2   6 C        2.772     0.216    23.438     7.929
     3   6 C        2.639     0.319    21.581     7.599
     4   8 O        1.701    -0.074    15.479     5.312
     5   8 O        0.856    -0.169    17.566     5.619
     6   1 H        0.924     0.176     1.228     1.733
     7   1 H        0.923     0.219     1.009     1.571
     8   1 H        0.924     0.157     1.346     1.814
     9   1 H        0.924     0.172     1.251     1.749
    10   1 H        0.924     0.145     1.426     1.867

 Mol. C6AA /au·bohr⁶  :        782.452832
 Mol. C8AA /au·bohr⁸  :      17609.214326
 Mol. α(0) /au        :         42.134411


Wiberg/Mayer (AO) data.
largest (>0.10) Wiberg bond orders for each atom

 ---------------------------------------------------------------------------
     #   Z sym  total        # sym  WBO       # sym  WBO       # sym  WBO
 ---------------------------------------------------------------------------
     1   6 C    3.963 --     2 C    1.228     8 H    0.941     6 H    0.897
                             7 H    0.808
     2   6 C    3.815 --     4 O    1.491     1 C    1.228     9 H    0.919
     3   6 C    3.867 --     5 O    2.049    10 H    0.910     4 O    0.864
     4   8 O    2.609 --     2 C    1.491     3 C    0.864     5 O    0.106
     5   8 O    2.263 --     3 C    2.049     4 O    0.106
     6   1 H    0.969 --     1 C    0.897
     7   1 H    0.952 --     1 C    0.808
     8   1 H    0.975 --     1 C    0.941
     9   1 H    0.970 --     2 C    0.919
    10   1 H    0.979 --     3 C    0.910
 ---------------------------------------------------------------------------

Topologies differ in total number of bonds
Writing topology from bond orders to xtbtopo.mol

molecular dipole:
                 x           y           z       tot (Debye)
 q only:        0.456      -1.491      -0.331
   full:        0.659      -1.466      -0.353       4.183
molecular quadrupole (traceless):
                xx          xy          yy          xz          yz          zz
 q only:       -4.315       1.751      10.847       0.202      -0.869      -6.532
  q+dip:       -4.913       2.168      10.968       0.203      -1.490      -6.055
   full:       -5.880       1.983      10.433       0.507      -1.087      -4.553

           -------------------------------------------------
          |                Geometry Summary                 |
           -------------------------------------------------

      molecular mass/u    :       73.0707213
   center of mass at/Å    :       -0.0254184      -0.0206516      -0.0327533
  moments of inertia/u·Å² :        0.5083336E+02   0.1123726E+03   0.1579862E+03
rotational constants/cm⁻¹ :        0.3316254E+00   0.1500155E+00   0.1067032E+00

 * 8 selected distances

     #   Z          #   Z                                           value/Å
     1   6 C        2   6 C                                       1.4340293 (max)
     2   6 C        4   8 O                                       1.2632011
     3   6 C        5   8 O                                       1.1677652
     1   6 C        6   1 H                                       1.0946522
     1   6 C        7   1 H                                       1.1032285
     1   6 C        8   1 H                                       1.0905330 (min)
     2   6 C        9   1 H                                       1.0971312
     3   6 C       10   1 H                                       1.0934399

 * 3 distinct bonds (by element types)

   Z      Z             #   av. dist./Å        max./Å        min./Å
   1 H    6 C           5     1.0957970     1.1032285     1.0905330
   6 C    6 C           1     1.4340293     1.4340293     1.4340293
   6 C    8 O           2     1.2154831     1.2632011     1.1677652

           -------------------------------------------------
          |               Frequency Printout                |
           -------------------------------------------------
 projected vibrational frequencies (cm⁻¹)
eigval :       -0.00    -0.00    -0.00     0.00     0.00     0.00
eigval :      103.30   120.70   221.20   286.89   462.28   679.42
eigval :      701.74   752.49   927.74   958.23   983.01  1165.99
eigval :     1215.72  1255.18  1276.76  1305.86  1381.83  1516.20
eigval :     1862.44  2860.31  2917.11  2946.80  2973.36  3028.67
 reduced masses (amu)
   1: 11.70   2: 11.41   3: 13.28   4: 12.38   5: 11.76   6: 13.57   7:  9.61   8:  5.13
Molecule has no symmetry elements
It seems to be the C1 point group
   9:  8.49  10:  9.49  11: 10.81  12: 13.23  13:  2.63  14: 11.22  15:  6.14  16:  6.05
  17:  6.67  18:  8.58  19:  2.32  20:  2.79  21:  2.71  22:  1.56  23:  4.49  24: 10.84
  25: 13.35  26:  1.80  27:  1.82  28:  1.99  29:  1.57  30:  1.83
 IR intensities (km·mol⁻¹)
   1:  0.09   2: 17.15   3:  5.03   4: 16.50   5: 10.97   6:  1.56   7: 21.29   8: 16.82
   9:  8.98  10: 12.66  11:  1.64  12:185.67  13: 39.52  14:159.52  15:  4.65  16: 13.50
  17:  5.28  18: 32.79  19: 83.33  20:266.06  21: 49.15  22: 64.28  23: 56.71  24:421.34
  25:228.72  26: 90.97  27: 15.19  28:  8.28  29: 58.09  30: 15.10
 Raman intensities (Ä⁴*amu⁻¹)
   1:  0.00   2:  0.00   3:  0.00   4:  0.00   5:  0.00   6:  0.00   7:  0.00   8:  0.00
   9:  0.00  10:  0.00  11:  0.00  12:  0.00  13:  0.00  14:  0.00  15:  0.00  16:  0.00
  17:  0.00  18:  0.00  19:  0.00  20:  0.00  21:  0.00  22:  0.00  23:  0.00  24:  0.00
  25:  0.00  26:  0.00  27:  0.00  28:  0.00  29:  0.00  30:  0.00
 output can be read by thermo (or use thermo option).
 writing <g98.out> molden fake output.
 recommended (thermochemical) frequency scaling factor: 1.0
           -------------------------------------------------
          |             Thermodynamic Functions             |
           -------------------------------------------------

c1  symmetry found (for desy threshold:  0.10E+00) used in thermo

          ...................................................
          :                      SETUP                      :
          :.................................................:
          :  # frequencies                          24      :
          :  # imaginary freq.                       0      :
          :  linear?                             false      :
          :  only rotor calc.                    false      :
          :  symmetry                               c1      :
          :  rotational number                       1      :
          :  scaling factor                  1.0000000      :
          :  rotor cutoff                   50.0000000 cm⁻¹ :
          :  imag. cutoff                  -20.0000000 cm⁻¹ :
          :.................................................:

    mode    ω/cm⁻¹     T·S(HO)/kcal·mol⁻¹    T·S(FR)/kcal·mol⁻¹   T·S(vib)
   ------------------------------------------------------------------------
       1    103.30    -1.01107 ( 94.80%)    -0.84115 (  5.20%)    -1.00223
       2    120.70    -0.92103 ( 97.14%)    -0.79509 (  2.86%)    -0.91742
       3    221.20    -0.58116 ( 99.74%)    -0.61581 (  0.26%)    -0.58125
       4    286.89    -0.44490 ( 99.91%)    -0.53883 (  0.09%)    -0.44499
   ------------------------------------------------------------------------

   temp. (K)  partition function   enthalpy   heat capacity  entropy
                                   cal/mol     cal/K/mol   cal/K/mol   J/K/mol
 298.15  VIB   15.2                 1999.048     13.456     12.070
         ROT  0.726E+05              888.752      2.981     25.223
         INT  0.110E+07             2887.801     16.437     37.293
         TR   0.604E+27             1481.254      4.968     38.765
         TOT                        4369.0546    21.4055    76.0585   318.2288

       T/K    H(0)-H(T)+PV         H(T)/Eh          T*S/Eh         G(T)/Eh
   ------------------------------------------------------------------------
    298.15    0.696253E-02    0.796434E-01    0.361379E-01    0.435056E-01
   ------------------------------------------------------------------------

         :::::::::::::::::::::::::::::::::::::::::::::::::::::
         ::                  THERMODYNAMIC                  ::
         :::::::::::::::::::::::::::::::::::::::::::::::::::::
         :: total free energy         -16.546684153482 Eh   ::
         ::.................................................::
         :: total energy              -16.590189736184 Eh   ::
         :: zero point energy           0.072680903384 Eh   ::
         :: G(RRHO) w/o ZPVE           -0.029175320682 Eh   ::
         :: G(RRHO) contrib.            0.043505582702 Eh   ::
         :::::::::::::::::::::::::::::::::::::::::::::::::::::

optimized geometry written to: xtbopt.xyz


           -------------------------------------------------
          | TOTAL ENERGY              -16.590189736184 Eh   |
          | TOTAL ENTHALPY            -16.510546301168 Eh   |
          | TOTAL FREE ENERGY         -16.546684153482 Eh   |
          | GRADIENT NORM               0.000418544776 Eh/α |
          | HOMO-LUMO GAP               2.687431573792 eV   |
           -------------------------------------------------

------------------------------------------------------------------------
 * finished run on 2025/06/07 at 21:26:38.837     
------------------------------------------------------------------------
 total:
 * wall-time:     0 d,  0 h,  0 min,  0.942 sec
 *  cpu-time:     0 d,  0 h,  0 min,  0.942 sec
 * ratio c/w:     1.000 speedup
 SCF:
 * wall-time:     0 d,  0 h,  0 min,  0.007 sec
 *  cpu-time:     0 d,  0 h,  0 min,  0.007 sec
 * ratio c/w:     0.999 speedup
 analytical hessian:
 * wall-time:     0 d,  0 h,  0 min,  0.280 sec
 *  cpu-time:     0 d,  0 h,  0 min,  0.280 sec
 * ratio c/w:     1.000 speedup

