10
 energy: -16.588742521071 gnorm: 0.027022868207 xtb: 6.7.1 (edcfbbe)
C           -0.53084066288014       -1.69784766735795       -0.23010601811580
C            0.73636252169294       -1.02171897847724       -0.05059687198348
C           -0.08225373924924        1.28189684056914       -0.09178416180274
O            0.96585549285675        0.21046766670708       -0.04591279993315
O           -1.09730982079995        1.12849483639509        0.44097677103399
H           -0.36052179849300       -2.56040153105061       -0.87630886357915
H           -0.78688239405666       -2.12095674064401        0.75064320672740
H           -1.34804413035165       -1.07831061074955       -0.57593255108529
H            1.64110793762961       -1.61186480069840        0.10106780550730
H            0.36610943365133        2.11841144530645       -0.62865883676909
10
 energy: -16.589472313393 gnorm: 0.014970567011 xtb: 6.7.1 (edcfbbe)
C           -0.52230900017708       -1.70220933517508       -0.22484781047152
C            0.73397054791413       -1.01461746864481       -0.04830280522828
C           -0.07731699102298        1.28839234990538       -0.09385521189565
O            0.95979784034592        0.22034981982944       -0.03617973281584
O           -1.11495326805349        1.12741559168472        0.40335352190783
H           -0.37556712339181       -2.57014357399023       -0.87403266242442
H           -0.78325704386217       -2.14324068882961        0.74870831408709
H           -1.35023514201650       -1.08023651196773       -0.55392819211190
H            1.64441571971090       -1.61066335353923        0.07691991280853
H            0.38903730055309        2.13312363072716       -0.60444765385586
10
 energy: -16.589862045265 gnorm: 0.011903867753 xtb: 6.7.1 (edcfbbe)
C           -0.51380329448606       -1.70410645402864       -0.21868921768276
C            0.73112908505057       -1.00692493868544       -0.05749976986477
C           -0.06962895606891        1.28874639167254       -0.09532164939909
O            0.95188229884770        0.23138207924213       -0.03320089329249
O           -1.13661304754681        1.11545359797686        0.34720671643991
H           -0.39231248301094       -2.57915527175524       -0.86774883987650
H           -0.77467953476560       -2.15954210960654        0.75101498203381
H           -1.35684946966616       -1.08249637855057       -0.52577917997934
H            1.64585015596465       -1.60658620297059        0.05327764838422
H            0.41860808568160        2.15139974670552       -0.55987211676300
10
 energy: -16.589973286648 gnorm: 0.008130827476 xtb: 6.7.1 (edcfbbe)
C           -0.51335046725514       -1.70494141258709       -0.21639718036901
C            0.72817116281163       -1.00569678157375       -0.05751267229027
C           -0.06833909989216        1.28340184205507       -0.10189083353289
O            0.94747155503712        0.23435318441955       -0.04018698857128
O           -1.13731192165264        1.11304176918465        0.33244933483470
H           -0.39167583481001       -2.58256767780584       -0.86146770251792
H           -0.77549847404717       -2.15920347740096        0.75397955520548
H           -1.35913818226686       -1.08631992559159       -0.52305656215975
H            1.64606873950413       -1.60266482747592        0.04430678118020
H            0.42718536257115        2.15876776677591       -0.53683605177925
10
 energy: -16.590030080929 gnorm: 0.008655432228 xtb: 6.7.1 (edcfbbe)
C           -0.51499146627528       -1.70140422088747       -0.21287448426317
C            0.72447715418537       -1.00461670834505       -0.05990540338035
C           -0.05203499257063        1.27633145651790       -0.08670185919089
O            0.94513853826246        0.23905575281457       -0.04578077923847
O           -1.14329669666603        1.09733649290924        0.29151348119334
H           -0.39109048252293       -2.58135116852511       -0.85251770297911
H           -0.77548108422270       -2.15296080377564        0.75998219298693
H           -1.36439513750882       -1.08657075488613       -0.51581738366300
H            1.64635608586102       -1.59666851156351        0.02589125013841
H            0.42890092145761        2.15901892574126       -0.51040163160370
10
 energy: -16.590153091692 gnorm: 0.002701522742 xtb: 6.7.1 (edcfbbe)
C           -0.51775338796750       -1.70228080319745       -0.21270483386619
C            0.72722242401088       -1.00791904439013       -0.06696784432163
C           -0.05734807159989        1.27347577304105       -0.09640439334975
O            0.94758532127584        0.23568200795573       -0.05102828527614
O           -1.14512124148336        1.09509004218918        0.29058638556475
H           -0.39251207215610       -2.58267828399071       -0.85166465017320
H           -0.77209366681736       -2.14719542310221        0.76417367944749
H           -1.36477041357919       -1.08614729041164       -0.51638120196727
H            1.64699591349459       -1.59767517221981        0.03134691966661
H            0.43137803482217        2.16781865412603       -0.49756809572466
10
 energy: -16.590167482148 gnorm: 0.001630000450 xtb: 6.7.1 (edcfbbe)
C           -0.51908787032605       -1.70242603043732       -0.21221594148620
C            0.72791203060166       -1.00931572239392       -0.06622590253641
C           -0.05768471478956        1.27316952348514       -0.09690863851973
O            0.94940330932785        0.23420168034581       -0.05109160192277
O           -1.14646603034035        1.09415039549165        0.28701406396241
H           -0.39256238259244       -2.58368118932073       -0.84995087965175
H           -0.77237568466044       -2.14370189603828        0.76632290925109
H           -1.36382825205080       -1.08527230581445       -0.51818527542996
H            1.64832626759131       -1.59864390388194        0.02776157742274
H            0.42994616723889        2.16968990856410       -0.49313263108943
10
 energy: -16.590177123719 gnorm: 0.003101897968 xtb: 6.7.1 (edcfbbe)
C           -0.52000505010682       -1.70287645428837       -0.21114953388156
C            0.72875249491670       -1.01034910222241       -0.07004675642953
C           -0.05641839090231        1.27233327878135       -0.09650754849087
O            0.95153650525092        0.23339108353811       -0.05326451471603
O           -1.15061349124970        1.08883772875224        0.27196230983414
H           -0.39530215166551       -2.58830152794827       -0.84394571555361
H           -0.77155067524423       -2.13655432237413        0.77117671652029
H           -1.36344192337199       -1.08508422239284       -0.51888176292116
H            1.64969699279971       -1.59898387437484        0.02042471756540
H            0.43092852957332        2.17575787252922       -0.47638023192709
10
 energy: -16.590181976158 gnorm: 0.001388102077 xtb: 6.7.1 (edcfbbe)
C           -0.51964117822255       -1.70321936738035       -0.21131999795101
C            0.72881651958757       -1.01023028157983       -0.07123399602658
C           -0.05654318402661        1.27276650989081       -0.09578601455753
O            0.95193532343673        0.23327165544049       -0.05405505422150
O           -1.15043819055588        1.08825824601181        0.27013948747028
H           -0.39549254706249       -2.59087780547650       -0.84089584981286
H           -0.77252388678526       -2.13306905185838        0.77238085286319
H           -1.36274625528068       -1.08592609556950       -0.52140239057524
H            1.64977299799476       -1.59918293918302        0.01831858870260
H            0.43044324091449        2.17637958970453       -0.47275794589135
10
 energy: -16.590188071123 gnorm: 0.001358837598 xtb: 6.7.1 (edcfbbe)
C           -0.51806414797295       -1.70376480304123       -0.21029682174543
C            0.72868874670516       -1.00919782037183       -0.07509081642843
C           -0.05677228412365        1.27350253730563       -0.09454226505850
O            0.95172744394081        0.23386613147211       -0.05452953168274
O           -1.15492835988438        1.08306977384152        0.25510145488609
H           -0.39727049495754       -2.59693042884216       -0.83177013004163
H           -0.77343793743706       -2.12460679808870        0.77707601561779
H           -1.36273717477555       -1.08883133490933       -0.52360160367618
H            1.65062749046793       -1.59947369044314        0.00632787570949
H            0.43574955803732        2.18053689307720       -0.45528649758046
10
 energy: -16.590189736173 gnorm: 0.000419070218 xtb: 6.7.1 (edcfbbe)
C           -0.51846767488324       -1.70365422173254       -0.21058365379057
C            0.72918448216532       -1.00956693506954       -0.07624636302606
C           -0.05738136773732        1.27318419564179       -0.09429417139106
O            0.95189269566746        0.23365987056471       -0.05468599313912
O           -1.15494729688906        1.08240419300492        0.25588768317361
H           -0.39662931530009       -2.59695484270040       -0.83141591459864
H           -0.77373378851358       -2.12243603330092        0.77763392350053
H           -1.36286582893268       -1.08901394971933       -0.52438481951062
H            1.65062671757204       -1.59927693427397        0.00671733213963
H            0.43590421685124        2.17982511758534       -0.45524034335770
