 Entering Gaussian System
 *********************************************
 Gaussian 98:
 frequency output generated by the xtb code
 *********************************************
                         Standard orientation:
 --------------------------------------------------------------------
  Center     Atomic     Atomic              Coordinates (Angstroms)
  Number     Number      Type              X           Y           Z
 --------------------------------------------------------------------
    1          6             0       -0.682305   -3.822735   -0.557277
    2          6             0        0.107311   -3.457390    0.628514
    3          1             0       -0.096999   -3.714611   -1.470182
    4          1             0       -1.007837   -4.872243   -0.513513
    5          1             0       -1.585300   -3.217413   -0.632452
    6          1             0        1.163138   -3.640374    0.657130
    7          1             0       -0.377227   -3.116772    1.521944
 --------------------------------------------------------------------
     1 basis functions        1 primitive gaussians
     1 alpha electrons        1 beta electrons

 Harmonic frequencies (cm**-1), IR intensities (km*mol⁻¹),
 Raman scattering activities (A**4/amu), Raman depolarization ratios,
 reduced masses (AMU), force constants (mDyne/A) and normal coordinates:
                      1                      2                      3
                        a                      a                      a 
 Frequencies --    70.9506               449.0529               829.1719
 Red. masses --     1.0151                 3.1942                 1.5048
 Frc consts  --     0.0000                 0.0000                 0.0000
 IR Inten    --     0.8374                50.4146                 5.2095
 Raman Activ --     0.0000                 0.0000                 0.0000
 Depolar     --     0.0000                 0.0000                 0.0000
 Atom AN      X      Y      Z        X      Y      Z        X      Y      Z
   1   6    -0.02   0.01   0.01     0.00  -0.03   0.02    -0.08   0.03   0.05
   2   6     0.00  -0.00  -0.00     0.06   0.41  -0.15    -0.16   0.05   0.09
   3   1    -0.09   0.30  -0.03    -0.03  -0.06  -0.02     0.35   0.01   0.24
   4   1     0.33  -0.11  -0.18     0.06  -0.03   0.13     0.14  -0.05  -0.08
   5   1    -0.16  -0.22   0.17    -0.03  -0.06  -0.02    -0.06  -0.11  -0.41
   6   1    -0.09  -0.53   0.18    -0.11  -0.59   0.18    -0.05  -0.16  -0.50
   7   1     0.08   0.54  -0.17    -0.09  -0.59   0.18     0.45   0.03   0.28
                      4                      5                      6
                        a                      a                      a 
 Frequencies --   979.9168              1141.4225              1161.3145
 Red. masses --     3.6087                 9.5932                 4.7762
 Frc consts  --     0.0000                 0.0000                 0.0000
 IR Inten    --     2.3665                 5.3530                 5.4194
 Raman Activ --     0.0000                 0.0000                 0.0000
 Depolar     --     0.0000                 0.0000                 0.0000
 Atom AN      X      Y      Z        X      Y      Z        X      Y      Z
   1   6    -0.04  -0.38   0.16     0.34   0.17   0.50     0.37  -0.13  -0.21
   2   6     0.02   0.23  -0.10    -0.34  -0.16  -0.50    -0.32   0.11   0.18
   3   1     0.17   0.28   0.19     0.12   0.00   0.15    -0.31  -0.02  -0.30
   4   1    -0.34  -0.01  -0.60     0.07   0.03   0.11    -0.17   0.06   0.09
   5   1     0.21   0.26   0.16     0.07   0.02   0.18     0.12   0.08   0.40
   6   1    -0.00  -0.01   0.03    -0.10  -0.05  -0.23    -0.09  -0.12  -0.32
   7   1     0.02  -0.02   0.02    -0.16  -0.03  -0.19     0.27   0.06   0.22
                      7                      8                      9
                        a                      a                      a 
 Frequencies --  1380.9380              1411.5609              1469.0488
 Red. masses --     2.5766                 2.7152                 2.0535
 Frc consts  --     0.0000                 0.0000                 0.0000
 IR Inten    --     0.7381                 8.6019                 3.5668
 Raman Activ --     0.0000                 0.0000                 0.0000
 Depolar     --     0.0000                 0.0000                 0.0000
 Atom AN      X      Y      Z        X      Y      Z        X      Y      Z
   1   6    -0.16  -0.09  -0.22     0.15   0.16   0.16    -0.06   0.15  -0.23
   2   6    -0.13  -0.06  -0.20    -0.15  -0.06  -0.24     0.08   0.05   0.10
   3   1     0.31   0.20   0.22    -0.11  -0.28  -0.10     0.43  -0.43   0.20
   4   1     0.21  -0.05   0.41    -0.16   0.04  -0.30    -0.12   0.03  -0.15
   5   1     0.14   0.25   0.31    -0.17  -0.26  -0.07    -0.24  -0.26   0.56
   6   1    -0.01   0.12   0.35    -0.01   0.15   0.49     0.01  -0.05  -0.12
   7   1     0.34   0.00   0.16     0.46  -0.01   0.23    -0.12   0.00  -0.05
                     10                     11                     12
                        a                      a                      a 
 Frequencies --  1472.2570              2851.3462              2997.4298
 Red. masses --     1.4525                 1.7379                 1.3859
 Frc consts  --     0.0000                 0.0000                 0.0000
 IR Inten    --     4.7288                27.5367                20.2335
 Raman Activ --     0.0000                 0.0000                 0.0000
 Depolar     --     0.0000                 0.0000                 0.0000
 Atom AN      X      Y      Z        X      Y      Z        X      Y      Z
   1   6     0.17  -0.06  -0.08     0.06   0.25  -0.05    -0.03   0.08  -0.16
   2   6     0.04  -0.02  -0.03     0.01   0.01   0.01    -0.00   0.00  -0.00
   3   1     0.12   0.47   0.13    -0.04   0.04   0.07    -0.42  -0.07   0.61
   4   1    -0.57   0.19   0.33    -0.27  -0.92   0.05     0.03   0.13  -0.03
   5   1    -0.25  -0.40  -0.10     0.09  -0.00  -0.00     0.52  -0.35   0.01
   6   1     0.01  -0.02   0.04     0.02   0.00  -0.00    -0.02   0.00   0.00
   7   1    -0.01   0.02  -0.03    -0.01   0.01   0.01     0.01  -0.01  -0.02
                     13                     14                     15
                        a                      a                      a 
 Frequencies --  3005.2124              3139.6404              3179.8227
 Red. masses --     1.9508                 1.4306                 2.1501
 Frc consts  --     0.0000                 0.0000                 0.0000
 IR Inten    --    35.1537                24.4724                44.5724
 Raman Activ --     0.0000                 0.0000                 0.0000
 Depolar     --     0.0000                 0.0000                 0.0000
 Atom AN      X      Y      Z        X      Y      Z        X      Y      Z
   1   6     0.25  -0.09  -0.12     0.00  -0.00   0.00     0.02  -0.01  -0.01
   2   6    -0.01   0.00   0.00     0.10   0.03   0.16     0.27  -0.09  -0.15
   3   1    -0.32  -0.08   0.52     0.01   0.00  -0.02    -0.02  -0.00   0.02
   4   1     0.04  -0.02  -0.02    -0.01  -0.02   0.00     0.00  -0.00  -0.00
   5   1    -0.59   0.42  -0.06    -0.02   0.01  -0.00    -0.02   0.02   0.00
   6   1     0.03  -0.01   0.01    -0.68   0.12   0.01    -0.66   0.11  -0.03
   7   1     0.01  -0.01  -0.03     0.33  -0.22  -0.56    -0.29   0.22   0.56
