7
 energy: -6.735116220586 gnorm: 0.009861009380 xtb: 6.7.1 (edcfbbe)
C           -0.68464095804349       -3.82488447060463       -0.55940129773455
C            0.10994618408522       -3.45309176933986        0.63080621426184
H           -0.11004318065365       -3.71506221244183       -1.47898744620920
H           -1.00935175654323       -4.87137733766864       -0.51770233752015
H           -1.58752765335367       -3.22122333453880       -0.64818256777667
H            1.17376012565110       -3.64067200923828        0.66974814713894
H           -0.37122522114228       -3.11523675616795        1.53782959783979
7
 energy: -6.735332881026 gnorm: 0.002760667859 xtb: 6.7.1 (edcfbbe)
C           -0.68326012622651       -3.82357010128164       -0.55840731216390
C            0.10668938226558       -3.45489605509990        0.62596703029041
H           -0.09797508501578       -3.71372437162349       -1.47185049247770
H           -1.00606100627535       -4.87226883620189       -0.51064686958030
H           -1.58583892356525       -3.21680174245849       -0.63444323360087
H            1.16360491072388       -3.64199097512330        0.65939863739893
H           -0.37624161190657       -3.11829580821129        1.52409255013343
7
 energy: -6.735340864861 gnorm: 0.000738507724 xtb: 6.7.1 (edcfbbe)
C           -0.68261157953226       -3.82295065921783       -0.55772032008388
C            0.10704290050517       -3.45593756242848        0.62716166824150
H           -0.09713778695886       -3.71439979213660       -1.47071429395269
H           -1.00695880696515       -4.87206618991385       -0.51223915631582
H           -1.58556881013912       -3.21726571037625       -0.63290703623076
H            1.16274800680774       -3.64117441157308        0.65812979861369
H           -0.37659638371752       -3.11775356435389        1.52239964972796
7
 energy: -6.735341669364 gnorm: 0.000289434692 xtb: 6.7.1 (edcfbbe)
C           -0.68228247787397       -3.82273771011006       -0.55728590261169
C            0.10732652866053       -3.45739043526949        0.62850855898558
H           -0.09697434550381       -3.71460857491148       -1.47018870942935
H           -1.00780991009737       -4.87224683868058       -0.51352465168504
H           -1.58528083704248       -3.21741966134835       -0.63246316220267
H            1.16315470846833       -3.64036829372695        0.65712725729108
H           -0.37721612661123       -3.11677637595307        1.52193691965209
