1
 energy: -0.393482763936 gnorm: 0.000000000000 xtb: 6.7.1 (edcfbbe)
H            2.35805655834569        1.52115053006899        7.06272854398134
