 Entering Gaussian System
 *********************************************
 Gaussian 98:
 frequency output generated by the xtb code
 *********************************************
                         Standard orientation:
 --------------------------------------------------------------------
  Center     Atomic     Atomic              Coordinates (Angstroms)
  Number     Number      Type              X           Y           Z
 --------------------------------------------------------------------
    1          6             0       -0.748800   -0.893414    0.038928
    2          6             0        0.794860   -0.900566    0.033465
    3          6             0        0.032561    1.162038    0.032258
    4          8             0        1.109894    0.509770    0.030084
    5          8             0       -1.050769    0.519782    0.036792
    6          1             0       -1.198498   -1.335267    0.932330
    7          1             0       -1.204874   -1.339502   -0.849085
    8          1             0        1.240404   -1.350060   -0.858201
    9          1             0        1.246832   -1.347372    0.923217
   10          1             0        0.037572    2.251774    0.029572
 --------------------------------------------------------------------
     1 basis functions        1 primitive gaussians
     1 alpha electrons        1 beta electrons

 Harmonic frequencies (cm**-1), IR intensities (km*mol⁻¹),
 Raman scattering activities (A**4/amu), Raman depolarization ratios,
 reduced masses (AMU), force constants (mDyne/A) and normal coordinates:
                      1                      2                      3
                        a                      a                      a 
 Frequencies --   203.1859               509.4910               711.5529
 Red. masses --     8.4917                 9.8784                12.8898
 Frc consts  --     0.0000                 0.0000                 0.0000
 IR Inten    --     0.0000                49.5224                21.9960
 Raman Activ --     0.0000                 0.0000                 0.0000
 Depolar     --     0.0000                 0.0000                 0.0000
 Atom AN      X      Y      Z        X      Y      Z        X      Y      Z
   1   6     0.00   0.00   0.34    -0.00  -0.00  -0.08    -0.38  -0.23   0.00
   2   6    -0.00  -0.00  -0.34    -0.00  -0.00  -0.08    -0.37   0.24   0.00
   3   6     0.00  -0.00  -0.00    -0.00  -0.00  -0.56     0.14  -0.00  -0.00
   4   8     0.00   0.00   0.41     0.00   0.00   0.42     0.35   0.35  -0.00
   5   8    -0.00  -0.00  -0.41     0.00   0.00   0.42     0.34  -0.36  -0.00
   6   1     0.12   0.18   0.25    -0.03  -0.14  -0.11    -0.12  -0.06   0.00
   7   1    -0.12  -0.17   0.25     0.03   0.13  -0.11    -0.12  -0.06  -0.00
   8   1    -0.12   0.18  -0.25    -0.02   0.14  -0.11    -0.12   0.06   0.00
   9   1     0.12  -0.18  -0.25     0.02  -0.14  -0.11    -0.12   0.06  -0.00
  10   1    -0.00  -0.00  -0.00    -0.00  -0.00  -0.45    -0.16   0.00   0.00
                      4                      5                      6
                        a                      a                      a 
 Frequencies --   840.5677               852.4853               918.2319
 Red. masses --     2.7879                12.9117                 4.3719
 Frc consts  --     0.0000                 0.0000                 0.0000
 IR Inten    --     1.8699                 0.8899                 2.1215
 Raman Activ --     0.0000                 0.0000                 0.0000
 Depolar     --     0.0000                 0.0000                 0.0000
 Atom AN      X      Y      Z        X      Y      Z        X      Y      Z
   1   6    -0.00  -0.00  -0.23    -0.18   0.38  -0.00    -0.00   0.00  -0.02
   2   6    -0.00  -0.00  -0.23     0.18   0.38  -0.00     0.00   0.00  -0.02
   3   6    -0.00   0.00  -0.10    -0.00  -0.55   0.00     0.00   0.00   0.52
   4   8     0.00   0.00   0.13     0.38  -0.09  -0.00    -0.00  -0.00  -0.11
   5   8     0.00  -0.00   0.13    -0.38  -0.09   0.00    -0.00  -0.00  -0.11
   6   1     0.39   0.13   0.21     0.01   0.03  -0.01     0.07  -0.05   0.01
   7   1    -0.39  -0.13   0.21     0.01   0.03   0.01    -0.07   0.05   0.01
   8   1     0.39  -0.13   0.21    -0.01   0.03   0.01     0.07   0.05   0.01
   9   1    -0.39   0.13   0.21    -0.01   0.03  -0.01    -0.07  -0.05   0.01
  10   1    -0.00   0.00   0.02    -0.00  -0.16   0.00    -0.00  -0.00  -0.82
                      7                      8                      9
                        a                      a                      a 
 Frequencies --   925.2719               952.8224              1014.7080
 Red. masses --    10.3019                13.9051                 9.0375
 Frc consts  --     0.0000                 0.0000                 0.0000
 IR Inten    --    44.2915                42.6053                 5.7891
 Raman Activ --     0.0000                 0.0000                 0.0000
 Depolar     --     0.0000                 0.0000                 0.0000
 Atom AN      X      Y      Z        X      Y      Z        X      Y      Z
   1   6    -0.05  -0.52   0.00     0.20   0.39  -0.00     0.54  -0.01  -0.00
   2   6    -0.05   0.53  -0.00    -0.19   0.39  -0.00    -0.54  -0.00   0.00
   3   6     0.15  -0.00  -0.00     0.00   0.07  -0.00    -0.00  -0.11   0.00
   4   8    -0.08  -0.30   0.00    -0.36  -0.40   0.00     0.20   0.11  -0.00
   5   8    -0.08   0.30  -0.00     0.35  -0.41  -0.00    -0.20   0.11   0.00
   6   1     0.04  -0.17   0.01     0.06   0.07  -0.01     0.26  -0.10  -0.00
   7   1     0.04  -0.17  -0.01     0.06   0.07   0.01     0.26  -0.10  -0.00
   8   1     0.05   0.17   0.01    -0.06   0.07   0.01    -0.26  -0.10   0.00
   9   1     0.04   0.17  -0.01    -0.06   0.07  -0.01    -0.26  -0.10   0.00
  10   1     0.32  -0.00  -0.00     0.00   0.01   0.00    -0.00  -0.03  -0.00
                     10                     11                     12
                        a                      a                      a 
 Frequencies --  1071.9908              1116.2197              1135.8605
 Red. masses --     5.4872                 2.5350                 2.2495
 Frc consts  --     0.0000                 0.0000                 0.0000
 IR Inten    --     0.0000                 8.8102                 0.0000
 Raman Activ --     0.0000                 0.0000                 0.0000
 Depolar     --     0.0000                 0.0000                 0.0000
 Atom AN      X      Y      Z        X      Y      Z        X      Y      Z
   1   6     0.00   0.00   0.41    -0.00  -0.00  -0.19    -0.00  -0.00  -0.23
   2   6    -0.00  -0.00  -0.41    -0.00  -0.00  -0.19     0.00   0.00   0.23
   3   6    -0.00  -0.00  -0.00     0.00   0.00   0.05     0.00  -0.00   0.00
   4   8     0.00   0.00   0.16     0.00   0.00   0.15     0.00  -0.00   0.06
   5   8    -0.00  -0.00  -0.16     0.00   0.00   0.15    -0.00   0.00  -0.06
   6   1    -0.07  -0.37  -0.11    -0.23   0.40   0.04     0.42  -0.21   0.05
   7   1     0.07   0.37  -0.12     0.23  -0.40   0.04    -0.42   0.21   0.05
   8   1     0.07  -0.37   0.12    -0.23  -0.40   0.04    -0.42  -0.21  -0.05
   9   1    -0.07   0.37   0.12     0.23   0.40   0.04     0.42   0.21  -0.05
  10   1     0.00  -0.00   0.00    -0.00  -0.00  -0.17    -0.00  -0.00   0.00
                     13                     14                     15
                        a                      a                      a 
 Frequencies --  1151.4645              1232.5641              1242.8656
 Red. masses --     3.6215                 4.1234                 5.3242
 Frc consts  --     0.0000                 0.0000                 0.0000
 IR Inten    --     4.1319                44.4405                 0.7972
 Raman Activ --     0.0000                 0.0000                 0.0000
 Depolar     --     0.0000                 0.0000                 0.0000
 Atom AN      X      Y      Z        X      Y      Z        X      Y      Z
   1   6     0.02  -0.08   0.00     0.23  -0.27  -0.00     0.29  -0.11  -0.00
   2   6     0.02   0.08  -0.00     0.24   0.27  -0.00    -0.29  -0.11   0.00
   3   6     0.09  -0.00  -0.00    -0.15   0.00   0.00    -0.00  -0.38   0.00
   4   8     0.04  -0.28   0.00     0.02  -0.04   0.00    -0.07   0.11  -0.00
   5   8     0.04   0.28  -0.00     0.02   0.04  -0.00     0.07   0.11  -0.00
   6   1     0.03  -0.03   0.01    -0.31   0.29  -0.01    -0.22   0.32   0.02
   7   1     0.03  -0.03  -0.01    -0.31   0.29   0.01    -0.22   0.32  -0.02
   8   1     0.03   0.03   0.01    -0.31  -0.29  -0.00     0.22   0.32  -0.02
   9   1     0.03   0.03  -0.01    -0.31  -0.29   0.01     0.22   0.32   0.02
  10   1    -0.90   0.00   0.00    -0.01   0.00  -0.00    -0.00  -0.12   0.00
                     16                     17                     18
                        a                      a                      a 
 Frequencies --  1353.7112              1420.7519              1443.9792
 Red. masses --    12.3228                 1.8868                 2.1444
 Frc consts  --     0.0000                 0.0000                 0.0000
 IR Inten    --    17.5964                27.6155                38.5937
 Raman Activ --     0.0000                 0.0000                 0.0000
 Depolar     --     0.0000                 0.0000                 0.0000
 Atom AN      X      Y      Z        X      Y      Z        X      Y      Z
   1   6     0.14  -0.02  -0.00     0.15   0.13  -0.00    -0.16  -0.12   0.00
   2   6    -0.14  -0.02   0.00     0.15  -0.13  -0.00     0.16  -0.12  -0.00
   3   6     0.00   0.53  -0.00     0.03  -0.00  -0.00     0.00   0.07  -0.00
   4   8     0.42  -0.29  -0.00    -0.01  -0.02   0.00     0.05  -0.06  -0.00
   5   8    -0.42  -0.28   0.00    -0.01   0.02  -0.00    -0.05  -0.06   0.00
   6   1    -0.14   0.11  -0.03    -0.26  -0.28  -0.29     0.27   0.26   0.28
   7   1    -0.14   0.11   0.03    -0.26  -0.28   0.29     0.27   0.26  -0.29
   8   1     0.15   0.11   0.03    -0.26   0.28  -0.29    -0.27   0.26  -0.29
   9   1     0.15   0.11  -0.03    -0.25   0.28   0.29    -0.27   0.27   0.29
  10   1     0.00   0.16  -0.00    -0.01   0.00   0.00     0.00   0.03  -0.00
                     19                     20                     21
                        a                      a                      a 
 Frequencies --  1524.8274              2976.2530              2985.4526
 Red. masses --    13.0129                 2.0153                 2.0552
 Frc consts  --     0.0000                 0.0000                 0.0000
 IR Inten    --   480.5953                 0.0007                19.0439
 Raman Activ --     0.0000                 0.0000                 0.0000
 Depolar     --     0.0000                 0.0000                 0.0000
 Atom AN      X      Y      Z        X      Y      Z        X      Y      Z
   1   6    -0.05   0.02   0.00    -0.00  -0.00   0.21     0.00   0.00  -0.22
   2   6    -0.05  -0.02   0.00    -0.00  -0.00  -0.21     0.00  -0.00  -0.22
   3   6    -0.80   0.00   0.00     0.00  -0.00  -0.00     0.00   0.00  -0.00
   4   8     0.35  -0.20  -0.00     0.00  -0.00  -0.00    -0.00  -0.00  -0.00
   5   8     0.36   0.19  -0.00    -0.00  -0.00   0.00    -0.00   0.00  -0.00
   6   1     0.04  -0.06  -0.00     0.20   0.20  -0.39    -0.20  -0.20   0.39
   7   1     0.04  -0.06   0.00    -0.20  -0.20  -0.38     0.20   0.20   0.37
   8   1     0.04   0.06  -0.01    -0.20   0.20   0.39    -0.20   0.21   0.39
   9   1     0.04   0.06   0.00     0.20  -0.20   0.38     0.20  -0.20   0.38
  10   1     0.08  -0.00  -0.00    -0.00   0.00  -0.00    -0.00  -0.00  -0.00
                     22                     23                     24
                        a                      a                      a 
 Frequencies --  2992.5701              2993.2161              3011.6646
 Red. masses --     1.5261                 1.5120                 1.9066
 Frc consts  --     0.0000                 0.0000                 0.0000
 IR Inten    --    10.7263                22.5503                74.3507
 Raman Activ --     0.0000                 0.0000                 0.0000
 Depolar     --     0.0000                 0.0000                 0.0000
 Atom AN      X      Y      Z        X      Y      Z        X      Y      Z
   1   6     0.11   0.10   0.00    -0.11  -0.10  -0.00    -0.02  -0.02  -0.00
   2   6     0.11  -0.11   0.00     0.10  -0.10   0.00     0.02  -0.02   0.00
   3   6     0.00  -0.00   0.00    -0.00  -0.05   0.00     0.00   0.28  -0.00
   4   8    -0.00  -0.01   0.00     0.00  -0.01   0.00     0.01  -0.00  -0.00
   5   8    -0.00   0.01   0.00    -0.00  -0.01   0.00    -0.01  -0.00   0.00
   6   1    -0.18  -0.19   0.40     0.18   0.19  -0.40     0.04   0.04  -0.08
   7   1    -0.19  -0.20  -0.41     0.19   0.19   0.40     0.04   0.04   0.08
   8   1    -0.18   0.19   0.40    -0.18   0.19   0.40    -0.04   0.04   0.08
   9   1    -0.19   0.20  -0.41    -0.18   0.19  -0.40    -0.04   0.04  -0.08
  10   1    -0.00   0.00   0.00     0.00   0.18  -0.00    -0.00  -0.94   0.00
