      -----------------------------------------------------------      
     |                   =====================                   |     
     |                           x T B                           |     
     |                   =====================                   |     
     |                         S. Grimme                         |     
     |          Mulliken Center for Theoretical Chemistry        |     
     |                    University of Bonn                     |     
      -----------------------------------------------------------      

   * xtb version 6.7.1 (edcfbbe) compiled by 'conda@afd1a870197c' on 2025-04-11

   xtb is free software: you can redistribute it and/or modify it under
   the terms of the GNU Lesser General Public License as published by
   the Free Software Foundation, either version 3 of the License, or
   (at your option) any later version.
   
   xtb is distributed in the hope that it will be useful,
   but WITHOUT ANY WARRANTY; without even the implied warranty of
   MERCHANTABILITY or FITNESS FOR A PARTICULAR PURPOSE.  See the
   GNU Lesser General Public License for more details.
   
   Cite this work as:
   * C. Bannwarth, E. Caldeweyher, S. Ehlert, A. Hansen, P. Pracht,
     J. Seibert, S. Spicher, S. Grimme, WIREs Comput. Mol. Sci., 2020, 11,
     e01493. DOI: 10.1002/wcms.1493
   
   for GFN2-xTB:
   * C. Bannwarth, S. Ehlert and S. Grimme., J. Chem. Theory Comput., 2019,
     15, 1652-1671. DOI: 10.1021/acs.jctc.8b01176
   for GFN1-xTB:
   * S. Grimme, C. Bannwarth, P. Shushkov, J. Chem. Theory Comput., 2017,
     13, 1989-2009. DOI: 10.1021/acs.jctc.7b00118
   for GFN0-xTB:
   * P. Pracht, E. Caldeweyher, S. Ehlert, S. Grimme, ChemRxiv, 2019, preprint.
     DOI: 10.26434/chemrxiv.8326202.v1
   for GFN-FF:
   * S. Spicher and S. Grimme, Angew. Chem. Int. Ed., 2020, 59, 15665-15673.
     DOI: 10.1002/anie.202004239
   
   for ALPB and GBSA implicit solvation:
   * S. Ehlert, M. Stahn, S. Spicher, S. Grimme, J. Chem. Theory Comput.,
     2021, 17, 4250-4261. DOI: 10.1021/acs.jctc.1c00471
   
   for ddCOSMO and CPCM-X implicit solvation:
   * M. Stahn, S. Ehlert, S. Grimme, J. Phys. Chem. A,
     2023, XX, XXXX-XXXX. DOI: 10.1021/acs.jpca.3c04382
   
   for DFT-D4:
   * E. Caldeweyher, C. Bannwarth and S. Grimme, J. Chem. Phys., 2017,
     147, 034112. DOI: 10.1063/1.4993215
   * E. Caldeweyher, S. Ehlert, A. Hansen, H. Neugebauer, S. Spicher,
     C. Bannwarth and S. Grimme, J. Chem. Phys., 2019, 150, 154122.
     DOI: 10.1063/1.5090222
   * E. Caldeweyher, J.-M. Mewes, S. Ehlert and S. Grimme, Phys. Chem. Chem. Phys.
     2020, 22, 8499-8512. DOI: 10.1039/D0CP00502A
   
   for sTDA-xTB:
   * S. Grimme and C. Bannwarth, J. Chem. Phys., 2016, 145, 054103.
     DOI: 10.1063/1.4959605
   
   in the mass-spec context:
   * V. Asgeirsson, C. Bauer and S. Grimme, Chem. Sci., 2017, 8, 4879.
     DOI: 10.1039/c7sc00601b
   * J. Koopman and S. Grimme, ACS Omega 2019, 4, 12, 15120-15133.
     DOI: 10.1021/acsomega.9b02011
   
   for metadynamics refer to:
   * S. Grimme, J. Chem. Theory Comput., 2019, 155, 2847-2862
     DOI: 10.1021/acs.jctc.9b00143
   
   for SPH calculations refer to:
   * S. Spicher and S. Grimme, J. Chem. Theory Comput., 2021, 17, 1701-1714
     DOI: 10.1021/acs.jctc.0c01306
   
   for ONIOM refer to:
   * C. Plett, A. Katbashev, S. Ehlert, S. Grimme, M. Bursch,
     Phys. Chem. Chem. Phys., 2023, 25, 17860-17868. DOI: 10.1039/D3CP02178E
   
   for DIPRO refer to:
   * J. Kohn, N. Gildemeister, S. Grimme, D. Fazzi, A. Hansen,
     J. Chem. Phys., 2023, just accepted.
   
   for PTB refer to:
   * S. Grimme, M. Mueller, A. Hansen, J. Chem. Phys., 2023, 158, 124111.
     DOI: 10.1063/5.0137838
   
   with help from (in alphabetical order)
   P. Atkinson, C. Bannwarth, F. Bohle, G. Brandenburg, E. Caldeweyher
   M. Checinski, S. Dohm, S. Ehlert, S. Ehrlich, I. Gerasimov, C. Hölzer
   A. Katbashev, J. Kohn, J. Koopman, C. Lavigne, S. Lehtola, F. März, M. Müller,
   F. Musil, H. Neugebauer, J. Pisarek, C. Plett, P. Pracht, F. Pultar,
   J. Seibert, P. Shushkov, S. Spicher, M. Stahn, M. Steiner, T. Strunk,
   J. Stückrath, T. Rose, and J. Unsleber
   
 * started run on 2025/06/07 at 21:26:37.861     
   ID    Z sym.   atoms
    1    6 C      1-3
    2    8 O      4, 5
    3    1 H      6-10

           -------------------------------------------------
          |                Calculation Setup                |
           -------------------------------------------------

          program call               : xtb xtbin.xyz --bhess --gfn2 --etemp 300
          coordinate file            : xtbin.xyz
          omp threads                :                     1


           -------------------------------------------------
          |                 G F N 2 - x T B                 |
           -------------------------------------------------

        Reference                      10.1021/acs.jctc.8b01176
      * Hamiltonian:
        H0-scaling (s, p, d)           1.850000    2.230000    2.230000
        zeta-weighting                 0.500000
      * Dispersion:
        s8                             2.700000
        a1                             0.520000
        a2                             5.000000
        s9                             5.000000
      * Repulsion:
        kExp                           1.500000    1.000000
        rExp                           1.000000
      * Coulomb:
        alpha                          2.000000
        third order                    shell-resolved
        anisotropic                    true
        a3                             3.000000
        a5                             4.000000
        cn-shift                       1.200000
        cn-exp                         4.000000
        max-rad                        5.000000


          ...................................................
          :                      SETUP                      :
          :.................................................:
          :  # basis functions                  25          :
          :  # atomic orbitals                  25          :
          :  # shells                           15          :
          :  # electrons                        28          :
          :  max. iterations                   250          :
          :  Hamiltonian                  GFN2-xTB          :
          :  restarted?                      false          :
          :  GBSA solvation                  false          :
          :  PC potential                    false          :
          :  electronic temp.          300.0000000     K    :
          :  accuracy                    1.0000000          :
          :  -> integral cutoff          0.2500000E+02      :
          :  -> integral neglect         0.1000000E-07      :
          :  -> SCF convergence          0.1000000E-05 Eh   :
          :  -> wf. convergence          0.1000000E-03 e    :
          :  Broyden damping             0.4000000          :
          :  net charge                          1          :
          :  unpaired electrons                  0          :
          ...................................................

 iter      E             dE          RMSdq      gap      omega  full diag
   1    -16.7744038 -0.167744E+02  0.534E+00    5.46       0.0  T
   2    -16.7930857 -0.186820E-01  0.307E+00    4.16       1.0  T
   3    -16.7926033  0.482450E-03  0.115E+00    4.29       1.0  T
   4    -16.7948409 -0.223761E-02  0.132E-01    3.94       1.0  T
   5    -16.7948838 -0.429421E-04  0.516E-02    4.03       1.0  T
   6    -16.7948873 -0.348626E-05  0.191E-02    4.02       1.7  T
   7    -16.7948887 -0.132731E-05  0.672E-03    4.02       4.7  T
   8    -16.7948889 -0.232192E-06  0.177E-03    4.02      17.9  T
   9    -16.7948889 -0.181457E-07  0.188E-04    4.02     167.8  T
  10    -16.7948889 -0.323936E-10  0.640E-05    4.02     494.0  T

   *** convergence criteria satisfied after 10 iterations ***

         #    Occupation            Energy/Eh            Energy/eV
      -------------------------------------------------------------
         1        2.0000           -1.0328605             -28.1056
       ...           ...                  ...                  ...
         8        2.0000           -0.7830564             -21.3080
         9        2.0000           -0.7792152             -21.2035
        10        2.0000           -0.7595433             -20.6682
        11        2.0000           -0.7584660             -20.6389
        12        2.0000           -0.7459602             -20.2986
        13        2.0000           -0.7211430             -19.6233
        14        2.0000           -0.6619998             -18.0139 (HOMO)
        15                         -0.5141065             -13.9895 (LUMO)
        16                         -0.3099118              -8.4331
        17                         -0.2323859              -6.3235
        18                         -0.1447555              -3.9390
        19                         -0.0944763              -2.5708
       ...                                ...                  ...
        25                          0.1983009               5.3960
      -------------------------------------------------------------
                  HL-Gap            0.1478933 Eh            4.0244 eV
             Fermi-level           -0.5880531 Eh          -16.0017 eV

 SCC (total)                   0 d,  0 h,  0 min,  0.006 sec
 SCC setup                      ...        0 min,  0.000 sec (  1.857%)
 Dispersion                     ...        0 min,  0.000 sec (  1.005%)
 classical contributions        ...        0 min,  0.000 sec (  0.367%)
 integral evaluation            ...        0 min,  0.001 sec ( 13.695%)
 iterations                     ...        0 min,  0.003 sec ( 52.243%)
 molecular gradient             ...        0 min,  0.002 sec ( 28.992%)
 printout                       ...        0 min,  0.000 sec (  1.654%)

         :::::::::::::::::::::::::::::::::::::::::::::::::::::
         ::                     SUMMARY                     ::
         :::::::::::::::::::::::::::::::::::::::::::::::::::::
         :: total energy             -16.635266248930 Eh    ::
         :: gradient norm              0.027733424522 Eh/a0 ::
         :: HOMO-LUMO gap              4.024380755608 eV    ::
         ::.................................................::
         :: SCC energy               -16.794887184186 Eh    ::
         :: -> isotropic ES            0.126796638082 Eh    ::
         :: -> anisotropic ES         -0.000764943939 Eh    ::
         :: -> anisotropic XC          0.004132018056 Eh    ::
         :: -> dispersion             -0.003787599865 Eh    ::
         :: repulsion energy           0.159620935255 Eh    ::
         :: add. restraining           0.000000000000 Eh    ::
         :: total charge               1.000000000000 e     ::
         :::::::::::::::::::::::::::::::::::::::::::::::::::::

metadynamics with 1 initial structures loaded
           -------------------------------------------------
          |           Optimal kpush determination           |
           -------------------------------------------------
      ----------------------------------------------------------- 
     |                   =====================                   |
     |                        A N C O P T                        |
     |                   =====================                   |
     |               Approximate Normal Coordinate               |
     |                Rational Function Optimizer                |
      ----------------------------------------------------------- 
target rmsd / Å         0.100000
unbiased initial rmsd   0.012881

iter. min.        max.        rmsd       kpush
final kpush: -0.000000
           -------------------------------------------------
          |            Biased Numerical Hessian             |
           -------------------------------------------------
kpush                :  -0.00000
alpha                :   1.00000
step length          :   0.00500
SCC accuracy         :   0.30000
Hessian scale factor :   1.00000
frozen atoms in %    :   0.00000    0
RMS gradient         :   0.00044
estimated CPU  time      0.00 min
estimated wall time      0.00 min

writing file <hessian>.

 projected vibrational frequencies (cm⁻¹)
eigval :       -0.00    -0.00    -0.00    -0.00     0.00     0.00
eigval :      203.19   509.49   711.55   840.57   852.49   918.23
eigval :      925.27   952.82  1014.71  1071.99  1116.22  1135.86
eigval :     1151.46  1232.56  1242.87  1353.71  1420.75  1443.98
eigval :     1524.83  2976.25  2985.45  2992.57  2993.22  3011.66
           -------------------------------------------------
          |                Property Printout                |
           -------------------------------------------------

    * Orbital Energies and Occupations

         #    Occupation            Energy/Eh            Energy/eV
      -------------------------------------------------------------
         1        2.0000           -1.0339469             -28.1351
         2        2.0000           -1.0014841             -27.2518
         3        2.0000           -0.9447341             -25.7075
         4        2.0000           -0.9123868             -24.8273
         5        2.0000           -0.8883559             -24.1734
         6        2.0000           -0.8736867             -23.7742
         7        2.0000           -0.8322173             -22.6458
         8        2.0000           -0.7854990             -21.3745
         9        2.0000           -0.7794143             -21.2089
        10        2.0000           -0.7603116             -20.6891
        11        2.0000           -0.7590432             -20.6546
        12        2.0000           -0.7418742             -20.1874
        13        2.0000           -0.7179133             -19.5354
        14        2.0000           -0.6589333             -17.9305 (HOMO)
        15                         -0.5145127             -14.0006 (LUMO)
        16                         -0.2801365              -7.6229
        17                         -0.2174363              -5.9167
        18                         -0.1567896              -4.2665
        19                         -0.1011470              -2.7524
        20                         -0.0853555              -2.3226
        21                         -0.0402861              -1.0962
        22                         -0.0088905              -0.2419
        23                          0.0599740               1.6320
        24                          0.1505604               4.0970
        25                          0.2023759               5.5069
      -------------------------------------------------------------
                  HL-Gap            0.1444206 Eh            3.9299 eV
             Fermi-level           -0.5867230 Eh          -15.9655 eV

     #   Z          covCN         q      C6AA      α(0)
     1   6 C        3.812     0.030    20.067     6.376
     2   6 C        3.812     0.030    20.067     6.376
     3   6 C        2.921     0.318    21.606     7.622
     4   8 O        1.704    -0.076    15.496     5.315
     5   8 O        1.704    -0.076    15.496     5.315
     6   1 H        0.924     0.146     1.420     1.863
     7   1 H        0.924     0.146     1.420     1.863
     8   1 H        0.924     0.146     1.420     1.863
     9   1 H        0.924     0.146     1.420     1.863
    10   1 H        0.925     0.190     1.149     1.676

 Mol. C6AA /au·bohr⁶  :        741.966717
 Mol. C8AA /au·bohr⁸  :      16512.388804
 Mol. α(0) /au        :         40.133996


Wiberg/Mayer (AO) data.
largest (>0.10) Wiberg bond orders for each atom

 ---------------------------------------------------------------------------
     #   Z sym  total        # sym  WBO       # sym  WBO       # sym  WBO
 ---------------------------------------------------------------------------
     1   6 C    3.864 --     2 C    1.002     7 H    0.950     6 H    0.950
                             5 O    0.901
     2   6 C    3.864 --     1 C    1.002     9 H    0.950     8 H    0.950
                             4 O    0.901
     3   6 C    3.874 --     4 O    1.440     5 O    1.440    10 H    0.907
     4   8 O    2.553 --     3 C    1.440     2 C    0.901     5 O    0.181
     5   8 O    2.553 --     3 C    1.440     1 C    0.901     4 O    0.181
     6   1 H    0.979 --     1 C    0.950
     7   1 H    0.979 --     1 C    0.950
     8   1 H    0.979 --     2 C    0.950
     9   1 H    0.979 --     2 C    0.950
    10   1 H    0.964 --     3 C    0.907
 ---------------------------------------------------------------------------

Topologies differ in total number of bonds
Writing topology from bond orders to xtbtopo.mol

molecular dipole:
                 x           y           z       tot (Debye)
 q only:        0.050      -0.220       0.065
   full:        0.051      -0.040       0.065       0.234
molecular quadrupole (traceless):
                xx          xy          yy          xz          yz          zz
 q only:       -2.601       0.026       6.633      -0.001      -0.043      -4.032
  q+dip:       -3.917       0.040       5.428       0.012      -0.019      -1.512
   full:       -4.105       0.043       5.936       0.011      -0.020      -1.831

           -------------------------------------------------
          |                Geometry Summary                 |
           -------------------------------------------------

      molecular mass/u    :       73.0707213
   center of mass at/Å    :        0.0275442       0.0785119       0.0342978
  moments of inertia/u·Å² :        0.5915832E+02   0.6088401E+02   0.1136449E+03
rotational constants/cm⁻¹ :        0.2849579E+00   0.2768811E+00   0.1483360E+00

 * 10 selected distances

     #   Z          #   Z                                           value/Å
     1   6 C        2   6 C                                       1.5436865 (max)
     2   6 C        4   8 O                                       1.4450971
     3   6 C        4   8 O                                       1.2594070
     1   6 C        5   8 O                                       1.4450994
     3   6 C        5   8 O                                       1.2594116
     1   6 C        6   1 H                                       1.0934482
     1   6 C        7   1 H                                       1.0934183
     2   6 C        8   1 H                                       1.0934449
     2   6 C        9   1 H                                       1.0934223
     3   6 C       10   1 H                                       1.0897508 (min)

 * 3 distinct bonds (by element types)

   Z      Z             #   av. dist./Å        max./Å        min./Å
   1 H    6 C           5     1.0926969     1.0934482     1.0897508
   6 C    6 C           1     1.5436865     1.5436865     1.5436865
   6 C    8 O           4     1.3522538     1.4450994     1.2594070

           -------------------------------------------------
          |               Frequency Printout                |
           -------------------------------------------------
 projected vibrational frequencies (cm⁻¹)
eigval :       -0.00    -0.00    -0.00    -0.00     0.00     0.00
eigval :      203.19   509.49   711.55   840.57   852.49   918.23
eigval :      925.27   952.82  1014.71  1071.99  1116.22  1135.86
eigval :     1151.46  1232.56  1242.87  1353.71  1420.75  1443.98
eigval :     1524.83  2976.25  2985.45  2992.57  2993.22  3011.66
 reduced masses (amu)
   1: 11.25   2: 12.76   3: 13.15   4: 12.14   5: 11.13   6: 12.49   7:  8.49   8:  9.88
   9: 12.89  10:  2.79  11: 12.91  12:  4.37  13: 10.30  14: 13.91  15:  9.04  16:  5.49
  17:  2.53  18:  2.25  19:  3.62  20:  4.12  21:  5.32  22: 12.32  23:  1.89  24:  2.14
  25: 13.01  26:  2.02  27:  2.06  28:  1.53  29:  1.51  30:  1.91
 IR intensities (km·mol⁻¹)
   1:  1.74   2:  9.81   3: 11.36   4: 10.79   5:  4.12   6:  2.45   7:  0.00   8: 49.52
   9: 22.00  10:  1.87  11:  0.89  12:  2.12  13: 44.29  14: 42.61  15:  5.79  16:  0.00
  17:  8.81  18:  0.00  19:  4.13  20: 44.44  21:  0.80  22: 17.60  23: 27.62  24: 38.59
  25:480.60  26:  0.00  27: 19.04  28: 10.73  29: 22.55  30: 74.35
 Raman intensities (Ä⁴*amu⁻¹)
   1:  0.00   2:  0.00   3:  0.00   4:  0.00   5:  0.00   6:  0.00   7:  0.00   8:  0.00
   9:  0.00  10:  0.00  11:  0.00  12:  0.00  13:  0.00  14:  0.00  15:  0.00  16:  0.00
  17:  0.00  18:  0.00  19:  0.00  20:  0.00  21:  0.00  22:  0.00  23:  0.00  24:  0.00
Molecule has the following symmetry elements: (C2) 2*(sigma) 
It seems to be the C2v point group
  25:  0.00  26:  0.00  27:  0.00  28:  0.00  29:  0.00  30:  0.00
 output can be read by thermo (or use thermo option).
 writing <g98.out> molden fake output.
 recommended (thermochemical) frequency scaling factor: 1.0
           -------------------------------------------------
          |             Thermodynamic Functions             |
           -------------------------------------------------

c2v symmetry found (for desy threshold:  0.10E+00) used in thermo

          ...................................................
          :                      SETUP                      :
          :.................................................:
          :  # frequencies                          24      :
          :  # imaginary freq.                       0      :
          :  linear?                             false      :
          :  only rotor calc.                    false      :
          :  symmetry                              c2v      :
          :  rotational number                       2      :
          :  scaling factor                  1.0000000      :
          :  rotor cutoff                   50.0000000 cm⁻¹ :
          :  imag. cutoff                  -20.0000000 cm⁻¹ :
          :.................................................:

    mode    ω/cm⁻¹     T·S(HO)/kcal·mol⁻¹    T·S(FR)/kcal·mol⁻¹   T·S(vib)
   ------------------------------------------------------------------------
       1    203.19    -0.62732 ( 99.63%)    -0.64087 (  0.37%)    -0.62737
   ------------------------------------------------------------------------

   temp. (K)  partition function   enthalpy   heat capacity  entropy
                                   cal/mol     cal/K/mol   cal/K/mol   J/K/mol
 298.15  VIB   2.00                  840.866      8.565      4.202
         ROT  0.244E+05              888.752      2.981     23.060
         INT  0.490E+05             1729.619     11.546     27.262
         TR   0.604E+27             1481.254      4.968     38.765
         TOT                        3210.8727    16.5142    66.0269   276.2564

       T/K    H(0)-H(T)+PV         H(T)/Eh          T*S/Eh         G(T)/Eh
   ------------------------------------------------------------------------
    298.15    0.511685E-02    0.838998E-01    0.313715E-01    0.525283E-01
   ------------------------------------------------------------------------

         :::::::::::::::::::::::::::::::::::::::::::::::::::::
         ::                  THERMODYNAMIC                  ::
         :::::::::::::::::::::::::::::::::::::::::::::::::::::
         :: total free energy         -16.583675344234 Eh   ::
         ::.................................................::
         :: total energy              -16.636203631111 Eh   ::
         :: zero point energy           0.078782928725 Eh   ::
         :: G(RRHO) w/o ZPVE           -0.026254641848 Eh   ::
         :: G(RRHO) contrib.            0.052528286877 Eh   ::
         :::::::::::::::::::::::::::::::::::::::::::::::::::::

optimized geometry written to: xtbopt.xyz


           -------------------------------------------------
          | TOTAL ENERGY              -16.636203631111 Eh   |
          | TOTAL ENTHALPY            -16.552303850960 Eh   |
          | TOTAL FREE ENERGY         -16.583675344234 Eh   |
          | GRADIENT NORM               0.000438023337 Eh/α |
          | HOMO-LUMO GAP               3.929885007163 eV   |
           -------------------------------------------------

------------------------------------------------------------------------
 * finished run on 2025/06/07 at 21:26:38.187     
------------------------------------------------------------------------
 total:
 * wall-time:     0 d,  0 h,  0 min,  0.326 sec
 *  cpu-time:     0 d,  0 h,  0 min,  0.326 sec
 * ratio c/w:     1.000 speedup
 SCF:
 * wall-time:     0 d,  0 h,  0 min,  0.007 sec
 *  cpu-time:     0 d,  0 h,  0 min,  0.007 sec
 * ratio c/w:     1.000 speedup
 analytical hessian:
 * wall-time:     0 d,  0 h,  0 min,  0.278 sec
 *  cpu-time:     0 d,  0 h,  0 min,  0.278 sec
 * ratio c/w:     1.000 speedup

