10
 energy: -16.635266248930 gnorm: 0.027733424522 xtb: 6.7.1 (edcfbbe)
C           -0.74879988616554       -0.89341404803237        0.03892794634628
C            0.79486025988254       -0.90056590879717        0.03346504584657
C            0.03256095623553        1.16203806995720        0.03225844180410
O            1.10989438460061        0.50976993834135        0.03008381994205
O           -1.05076881478644        0.51978167372979        0.03679249446836
H           -1.19849837373888       -1.33526660518299        0.93232948240310
H           -1.20487341631670       -1.33950155789607       -0.84908451009389
H            1.24040421174928       -1.35005980598413       -0.85820047080218
H            1.24683230756522       -1.34737207443715        0.92321644456857
H            0.03757177384348        2.25177391092920        0.02957156295795
