10
 energy: -16.635266248947 gnorm: 0.027733491635 xtb: 6.7.1 (edcfbbe)
C           -0.73950372927298       -0.91486533781322        0.03897065366055
C            0.78534247532588       -0.92212041791910        0.03345960432236
C            0.03268664965257        1.16701414236086        0.03207541074945
O            1.10750597242553        0.51193629916159        0.03118633575218
O           -1.04819410157739        0.52182311054621        0.03566027747383
H           -1.19099450990247       -1.32644009275401        0.93505342771657
H           -1.19772628529949       -1.33191931495119       -0.85110348912080
H            1.23309710824622       -1.34124723541096       -0.86097978715413
H            1.23962831106253       -1.33971254728398        0.92530177374877
H            0.03735454933960        2.25271573406380        0.02973220285123
10
 energy: -16.635937379709 gnorm: 0.014964361731 xtb: 6.7.1 (edcfbbe)
C           -0.74465053400511       -0.90566040539952        0.03892431126213
C            0.79058757270887       -0.91289014177693        0.03350481361935
C            0.03264099665324        1.16443891265706        0.03200382617299
O            1.10973390421001        0.51258184892094        0.03073328883228
O           -1.05047252217335        0.52253129958451        0.03592251799312
H           -1.19840455146473       -1.33083469820275        0.93509217054792
H           -1.20498062478266       -1.33625327340848       -0.85124695797693
H            1.24040038905919       -1.34576474423511       -0.86094272729023
H            1.24692165111408       -1.34403229567422        0.92545614488640
H            0.03742015868046        2.25306783753450        0.02990902195299
10
 energy: -16.636187067283 gnorm: 0.004212611103 xtb: 6.7.1 (edcfbbe)
C           -0.74849438721173       -0.89443559171114        0.03890875746019
C            0.79455080375971       -0.90160306461469        0.03348504325230
C            0.03258009516903        1.16181509922371        0.03214683588181
O            1.11082902389852        0.51183780838099        0.03035742160639
O           -1.05165512697314        0.52184727361750        0.03640687413328
H           -1.19996019221521       -1.33555565463095        0.93336920620338
H           -1.20634575865458       -1.34045127748582       -0.84979975059811
H            1.24188173447045       -1.35042392440066       -0.85921427365425
H            1.24829737893342       -1.34827311082716        0.92395911157838
H            0.03751286882353        2.25242678244822        0.02973718413665
10
 energy: -16.636199883630 gnorm: 0.002221272026 xtb: 6.7.1 (edcfbbe)
C           -0.74871995619908       -0.89357468400505        0.03891222364104
C            0.79478704875246       -0.90072856734654        0.03347282073673
C            0.03256507972866        1.16160763997443        0.03195018797419
O            1.11038333330888        0.51066902952060        0.03014651928012
O           -1.05123993121762        0.52067718485541        0.03646738394297
H           -1.19925549685932       -1.33530139288183        0.93273740595013
H           -1.20567090997135       -1.34001648462859       -0.84924850500206
H            1.24121401942621       -1.35023744150805       -0.85853280262562
H            1.24759686254587       -1.34774609178456        0.92345691210334
H            0.03753639048530        2.25183514780419        0.02999426399918
10
 energy: -16.636203631105 gnorm: 0.000438420934 xtb: 6.7.1 (edcfbbe)
C           -0.74879534412986       -0.89341803666332        0.03892377324911
C            0.79486485840383       -0.90056180531723        0.03346624867174
C            0.03255475921458        1.16203818412647        0.03226058358113
O            1.10989161041714        0.50977569721407        0.03008858392130
O           -1.05077166476615        0.51977610770060        0.03678973376404
H           -1.19849463671939       -1.33527450770008        0.93232296838105
H           -1.20486343881502       -1.33950638463875       -0.84909105374684
H            1.24041427630611       -1.35005181338747       -0.85819849723100
H            1.24683613973089       -1.34736715734220        0.92321844525546
H            0.03755988035788        2.25177405600791        0.02957562415402
