1
 energy: -0.393482763936 gnorm: 0.000000000000 xtb: 6.7.1 (edcfbbe)
H            2.63828517801063        4.56242755562846       -4.09689358226279
