      -----------------------------------------------------------      
     |                   =====================                   |     
     |                           x T B                           |     
     |                   =====================                   |     
     |                         S. Grimme                         |     
     |          Mulliken Center for Theoretical Chemistry        |     
     |                    University of Bonn                     |     
      -----------------------------------------------------------      

   * xtb version 6.7.1 (edcfbbe) compiled by 'conda@afd1a870197c' on 2025-04-11

   xtb is free software: you can redistribute it and/or modify it under
   the terms of the GNU Lesser General Public License as published by
   the Free Software Foundation, either version 3 of the License, or
   (at your option) any later version.
   
   xtb is distributed in the hope that it will be useful,
   but WITHOUT ANY WARRANTY; without even the implied warranty of
   MERCHANTABILITY or FITNESS FOR A PARTICULAR PURPOSE.  See the
   GNU Lesser General Public License for more details.
   
   Cite this work as:
   * C. Bannwarth, E. Caldeweyher, S. Ehlert, A. Hansen, P. Pracht,
     J. Seibert, S. Spicher, S. Grimme, WIREs Comput. Mol. Sci., 2020, 11,
     e01493. DOI: 10.1002/wcms.1493
   
   for GFN2-xTB:
   * C. Bannwarth, S. Ehlert and S. Grimme., J. Chem. Theory Comput., 2019,
     15, 1652-1671. DOI: 10.1021/acs.jctc.8b01176
   for GFN1-xTB:
   * S. Grimme, C. Bannwarth, P. Shushkov, J. Chem. Theory Comput., 2017,
     13, 1989-2009. DOI: 10.1021/acs.jctc.7b00118
   for GFN0-xTB:
   * P. Pracht, E. Caldeweyher, S. Ehlert, S. Grimme, ChemRxiv, 2019, preprint.
     DOI: 10.26434/chemrxiv.8326202.v1
   for GFN-FF:
   * S. Spicher and S. Grimme, Angew. Chem. Int. Ed., 2020, 59, 15665-15673.
     DOI: 10.1002/anie.202004239
   
   for ALPB and GBSA implicit solvation:
   * S. Ehlert, M. Stahn, S. Spicher, S. Grimme, J. Chem. Theory Comput.,
     2021, 17, 4250-4261. DOI: 10.1021/acs.jctc.1c00471
   
   for ddCOSMO and CPCM-X implicit solvation:
   * M. Stahn, S. Ehlert, S. Grimme, J. Phys. Chem. A,
     2023, XX, XXXX-XXXX. DOI: 10.1021/acs.jpca.3c04382
   
   for DFT-D4:
   * E. Caldeweyher, C. Bannwarth and S. Grimme, J. Chem. Phys., 2017,
     147, 034112. DOI: 10.1063/1.4993215
   * E. Caldeweyher, S. Ehlert, A. Hansen, H. Neugebauer, S. Spicher,
     C. Bannwarth and S. Grimme, J. Chem. Phys., 2019, 150, 154122.
     DOI: 10.1063/1.5090222
   * E. Caldeweyher, J.-M. Mewes, S. Ehlert and S. Grimme, Phys. Chem. Chem. Phys.
     2020, 22, 8499-8512. DOI: 10.1039/D0CP00502A
   
   for sTDA-xTB:
   * S. Grimme and C. Bannwarth, J. Chem. Phys., 2016, 145, 054103.
     DOI: 10.1063/1.4959605
   
   in the mass-spec context:
   * V. Asgeirsson, C. Bauer and S. Grimme, Chem. Sci., 2017, 8, 4879.
     DOI: 10.1039/c7sc00601b
   * J. Koopman and S. Grimme, ACS Omega 2019, 4, 12, 15120-15133.
     DOI: 10.1021/acsomega.9b02011
   
   for metadynamics refer to:
   * S. Grimme, J. Chem. Theory Comput., 2019, 155, 2847-2862
     DOI: 10.1021/acs.jctc.9b00143
   
   for SPH calculations refer to:
   * S. Spicher and S. Grimme, J. Chem. Theory Comput., 2021, 17, 1701-1714
     DOI: 10.1021/acs.jctc.0c01306
   
   for ONIOM refer to:
   * C. Plett, A. Katbashev, S. Ehlert, S. Grimme, M. Bursch,
     Phys. Chem. Chem. Phys., 2023, 25, 17860-17868. DOI: 10.1039/D3CP02178E
   
   for DIPRO refer to:
   * J. Kohn, N. Gildemeister, S. Grimme, D. Fazzi, A. Hansen,
     J. Chem. Phys., 2023, just accepted.
   
   for PTB refer to:
   * S. Grimme, M. Mueller, A. Hansen, J. Chem. Phys., 2023, 158, 124111.
     DOI: 10.1063/5.0137838
   
   with help from (in alphabetical order)
   P. Atkinson, C. Bannwarth, F. Bohle, G. Brandenburg, E. Caldeweyher
   M. Checinski, S. Dohm, S. Ehlert, S. Ehrlich, I. Gerasimov, C. Hölzer
   A. Katbashev, J. Kohn, J. Koopman, C. Lavigne, S. Lehtola, F. März, M. Müller,
   F. Musil, H. Neugebauer, J. Pisarek, C. Plett, P. Pracht, F. Pultar,
   J. Seibert, P. Shushkov, S. Spicher, M. Stahn, M. Steiner, T. Strunk,
   J. Stückrath, T. Rose, and J. Unsleber
   
 * started run on 2025/06/07 at 21:26:37.940     
   ID    Z sym.   atoms
    1    6 C      1, 2
    2    8 O      3
    3    1 H      4-8

           -------------------------------------------------
          |                Calculation Setup                |
           -------------------------------------------------

          program call               : xtb xtbin.xyz --bhess --gfn2 --etemp 300
          coordinate file            : xtbin.xyz
          omp threads                :                     1


           -------------------------------------------------
          |                 G F N 2 - x T B                 |
           -------------------------------------------------

        Reference                      10.1021/acs.jctc.8b01176
      * Hamiltonian:
        H0-scaling (s, p, d)           1.850000    2.230000    2.230000
        zeta-weighting                 0.500000
      * Dispersion:
        s8                             2.700000
        a1                             0.520000
        a2                             5.000000
        s9                             5.000000
      * Repulsion:
        kExp                           1.500000    1.000000
        rExp                           1.000000
      * Coulomb:
        alpha                          2.000000
        third order                    shell-resolved
        anisotropic                    true
        a3                             3.000000
        a5                             4.000000
        cn-shift                       1.200000
        cn-exp                         4.000000
        max-rad                        5.000000


          ...................................................
          :                      SETUP                      :
          :.................................................:
          :  # basis functions                  17          :
          :  # atomic orbitals                  17          :
          :  # shells                           11          :
          :  # electrons                        19          :
          :  max. iterations                   250          :
          :  Hamiltonian                  GFN2-xTB          :
          :  restarted?                      false          :
          :  GBSA solvation                  false          :
          :  PC potential                    false          :
          :  electronic temp.          300.0000000     K    :
          :  accuracy                    1.0000000          :
          :  -> integral cutoff          0.2500000E+02      :
          :  -> integral neglect         0.1000000E-07      :
          :  -> SCF convergence          0.1000000E-05 Eh   :
          :  -> wf. convergence          0.1000000E-03 e    :
          :  Broyden damping             0.4000000          :
          :  net charge                          0          :
          :  unpaired electrons                  1          :
          ...................................................

 iter      E             dE          RMSdq      gap      omega  full diag
   1    -10.8762626 -0.108763E+02  0.326E+00   14.07       0.0  T
   2    -10.8976083 -0.213457E-01  0.183E+00   13.34       1.0  T
   3    -10.8999189 -0.231056E-02  0.100E+00   13.72       1.0  T
   4    -10.9006204 -0.701592E-03  0.154E-01   13.65       1.0  T
   5    -10.9006338 -0.133983E-04  0.795E-02   13.64       1.0  T
   6    -10.9006363 -0.245847E-05  0.263E-02   13.64       1.3  T
   7    -10.9006367 -0.355271E-06  0.566E-03   13.64       6.2  T
   8    -10.9006367 -0.107365E-07  0.149E-03   13.65      23.7  T
   9    -10.9006367 -0.685319E-08  0.439E-04   13.65      80.5  T
  10    -10.9006367 -0.204203E-09  0.375E-05   13.65     943.8  T

   *** convergence criteria satisfied after 10 iterations ***

         #    Occupation            Energy/Eh            Energy/eV
      -------------------------------------------------------------
         1        2.0000           -0.6850343             -18.6407
       ...           ...                  ...                  ...
         4        2.0000           -0.5505006             -14.9799
         5        2.0000           -0.5394990             -14.6805
         6        2.0000           -0.5158327             -14.0365
         7        2.0000           -0.4769841             -12.9794
         8        2.0000           -0.4765710             -12.9682
         9        1.9973           -0.4106268             -11.1737
        10        1.0027           -0.3993954             -10.8681 (HOMO)
        11                          0.1020536               2.7770 (LUMO)
        12                          0.1129998               3.0749
        13                          0.1176591               3.2017
        14                          0.1649202               4.4877
        15                          0.2042375               5.5576
       ...                                ...                  ...
        17                          0.2495905               6.7917
      -------------------------------------------------------------
                  HL-Gap            0.5014491 Eh           13.6451 eV
             Fermi-level           -0.2768410 Eh           -7.5332 eV

 SCC (total)                   0 d,  0 h,  0 min,  0.004 sec
 SCC setup                      ...        0 min,  0.000 sec (  2.630%)
 Dispersion                     ...        0 min,  0.000 sec (  0.853%)
 classical contributions        ...        0 min,  0.000 sec (  0.399%)
 integral evaluation            ...        0 min,  0.000 sec ( 12.204%)
 iterations                     ...        0 min,  0.002 sec ( 54.888%)
 molecular gradient             ...        0 min,  0.001 sec ( 25.692%)
 printout                       ...        0 min,  0.000 sec (  3.002%)

         :::::::::::::::::::::::::::::::::::::::::::::::::::::
         ::                     SUMMARY                     ::
         :::::::::::::::::::::::::::::::::::::::::::::::::::::
         :: total energy             -10.792415503584 Eh    ::
         :: gradient norm              0.050561247791 Eh/a0 ::
         :: HOMO-LUMO gap             13.645123912579 eV    ::
         ::.................................................::
         :: SCC energy               -10.900636413114 Eh    ::
         :: -> isotropic ES            0.028654309029 Eh    ::
         :: -> anisotropic ES          0.001514247049 Eh    ::
         :: -> anisotropic XC          0.002012121552 Eh    ::
         :: -> dispersion             -0.002286016833 Eh    ::
         :: repulsion energy           0.108220909530 Eh    ::
         :: add. restraining           0.000000000000 Eh    ::
         :: total charge              -0.000000000000 e     ::
         :::::::::::::::::::::::::::::::::::::::::::::::::::::

metadynamics with 1 initial structures loaded
           -------------------------------------------------
          |           Optimal kpush determination           |
           -------------------------------------------------
      ----------------------------------------------------------- 
     |                   =====================                   |
     |                        A N C O P T                        |
     |                   =====================                   |
     |               Approximate Normal Coordinate               |
     |                Rational Function Optimizer                |
      ----------------------------------------------------------- 
target rmsd / Å         0.100000
unbiased initial rmsd   0.022108

iter. min.        max.        rmsd       kpush
final kpush: -0.000000
           -------------------------------------------------
          |            Biased Numerical Hessian             |
           -------------------------------------------------
kpush                :  -0.00000
alpha                :   1.00000
step length          :   0.00500
SCC accuracy         :   0.30000
Hessian scale factor :   1.00000
frozen atoms in %    :   0.00000    0
RMS gradient         :   0.00032
estimated CPU  time      0.00 min
estimated wall time      0.00 min

writing file <hessian>.

 projected vibrational frequencies (cm⁻¹)
eigval :       -0.00    -0.00     0.00     0.00     0.00     0.00
eigval :      165.86   448.23   581.91   906.09   943.72  1069.65
eigval :     1119.43  1202.14  1255.50  1358.20  1391.84  1463.33
eigval :     1478.14  2522.49  2624.43  3034.74  3041.28  3047.19
           -------------------------------------------------
          |                Property Printout                |
           -------------------------------------------------

    * Orbital Energies and Occupations

         #    Occupation            Energy/Eh            Energy/eV
      -------------------------------------------------------------
         1        2.0000           -0.6915718             -18.8186
         2        2.0000           -0.6352666             -17.2865
         3        2.0000           -0.5964589             -16.2305
         4        2.0000           -0.5517288             -15.0133
         5        2.0000           -0.5420910             -14.7510
         6        2.0000           -0.5160513             -14.0425
         7        2.0000           -0.4785536             -13.0221
         8        2.0000           -0.4767868             -12.9740
         9        1.9985           -0.4067709             -11.0688
        10        1.0015           -0.3944664             -10.7340 (HOMO)
        11                          0.0957684               2.6060 (LUMO)
        12                          0.0962548               2.6192
        13                          0.1173299               3.1927
        14                          0.1670597               4.5459
        15                          0.2094213               5.6986
        16                          0.2301686               6.2632
        17                          0.3180758               8.6553
      -------------------------------------------------------------
                  HL-Gap            0.4902349 Eh           13.3400 eV
             Fermi-level           -0.2749838 Eh           -7.4827 eV

     #   Z          covCN         q      C6AA      α(0)
     1   6 C        3.750    -0.130    23.065     6.849
     2   6 C        3.668     0.126    18.767     6.211
     3   8 O        0.855    -0.374    21.162     6.168
     4   1 H        0.925     0.066     2.126     2.280
     5   1 H        0.925     0.040     2.442     2.444
     6   1 H        0.925     0.066     2.126     2.280
     7   1 H        0.919     0.102     1.764     2.077
     8   1 H        0.919     0.102     1.764     2.077

 Mol. C6AA /au·bohr⁶  :        433.217648
 Mol. C8AA /au·bohr⁸  :       8907.186812
 Mol. α(0) /au        :         30.386897


Wiberg/Mayer (AO) data.
largest (>0.10) Wiberg bond orders for each atom

 ---------------------------------------------------------------------------
     #   Z sym  total        # sym  WBO       # sym  WBO       # sym  WBO
 ---------------------------------------------------------------------------
     1   6 C    3.994 --     2 C    0.997     5 H    0.989     4 H    0.972
                             6 H    0.972
     2   6 C    3.970 --     3 O    1.313     1 C    0.997     7 H    0.828
                             8 H    0.828
     3   8 O    1.609 --     2 C    1.313     8 H    0.101     7 H    0.101
     4   1 H    0.995 --     1 C    0.972
     5   1 H    0.998 --     1 C    0.989
     6   1 H    0.995 --     1 C    0.972
     7   1 H    0.974 --     2 C    0.828     3 O    0.101
     8   1 H    0.974 --     2 C    0.828     3 O    0.101
 ---------------------------------------------------------------------------

Topologies differ in total number of bonds
Writing topology from bond orders to xtbtopo.mol

molecular dipole:
                 x           y           z       tot (Debye)
 q only:        0.381      -1.046       0.224
   full:        0.491      -1.229       0.297       3.448
molecular quadrupole (traceless):
                xx          xy          yy          xz          yz          zz
 q only:       -1.856      -5.845       6.621       1.236      -1.293      -4.765
  q+dip:       -1.420      -7.132       6.407       1.248      -1.872      -4.987
Refinement of some symmetry elements was terminated before convergence was reached.
Some symmetry elements may remain unidentified.
Molecule has the following symmetry elements: (sigma) 
It seems to be the Cs point group
   full:       -1.597      -7.135       6.658       1.055      -1.863      -5.061

           -------------------------------------------------
          |                Geometry Summary                 |
           -------------------------------------------------

      molecular mass/u    :       45.0605805
   center of mass at/Å    :        1.1874703      -2.5269074      -0.0734726
  moments of inertia/u·Å² :        0.1216648E+02   0.5222070E+02   0.5832822E+02
rotational constants/cm⁻¹ :        0.1385580E+01   0.3228152E+00   0.2890133E+00

 * 6 selected distances

     #   Z          #   Z                                           value/Å
     1   6 C        2   6 C                                       1.5274639 (max)
     1   6 C        4   1 H                                       1.0878418
     1   6 C        5   1 H                                       1.0865085 (min)
     1   6 C        6   1 H                                       1.0878407
     2   6 C        7   1 H                                       1.1228886
     2   6 C        8   1 H                                       1.1229971

 * 2 distinct bonds (by element types)

   Z      Z             #   av. dist./Å        max./Å        min./Å
   1 H    6 C           5     1.1016153     1.1229971     1.0865085
   6 C    6 C           1     1.5274639     1.5274639     1.5274639

           -------------------------------------------------
          |               Frequency Printout                |
           -------------------------------------------------
 projected vibrational frequencies (cm⁻¹)
eigval :       -0.00    -0.00     0.00     0.00     0.00     0.00
eigval :      165.86   448.23   581.91   906.09   943.72  1069.65
eigval :     1119.43  1202.14  1255.50  1358.20  1391.84  1463.33
eigval :     1478.14  2522.49  2624.43  3034.74  3041.28  3047.19
 reduced masses (amu)
   1: 12.55   2:  8.46   3: 10.53   4: 12.50   5: 11.42   6:  9.13   7:  2.96   8: 10.35
   9:  4.78  10:  2.59  11:  8.20  12:  6.98  13:  2.31  14:  7.96  15:  2.92  16:  6.54
  17:  3.35  18:  1.59  19:  1.56  20:  1.87  21:  1.46  22:  1.95  23:  1.26  24:  1.95
 IR intensities (km·mol⁻¹)
   1: 14.21   2:  5.00   3:  3.23   4:  0.55   5:  2.31   6:  4.81   7:  3.13   8: 17.12
   9: 78.83  10:  2.35  11:  7.71  12: 34.28  13:  0.06  14: 22.02  15: 10.84  16: 58.41
  17: 23.48  18:  5.12  19:  9.79  20: 10.33  21: 23.45  22:  9.21  23:  2.35  24: 29.27
 Raman intensities (Ä⁴*amu⁻¹)
   1:  0.00   2:  0.00   3:  0.00   4:  0.00   5:  0.00   6:  0.00   7:  0.00   8:  0.00
   9:  0.00  10:  0.00  11:  0.00  12:  0.00  13:  0.00  14:  0.00  15:  0.00  16:  0.00
  17:  0.00  18:  0.00  19:  0.00  20:  0.00  21:  0.00  22:  0.00  23:  0.00  24:  0.00
 output can be read by thermo (or use thermo option).
 writing <g98.out> molden fake output.
 recommended (thermochemical) frequency scaling factor: 1.0
           -------------------------------------------------
          |             Thermodynamic Functions             |
           -------------------------------------------------

cs  symmetry found (for desy threshold:  0.10E+00) used in thermo

          ...................................................
          :                      SETUP                      :
          :.................................................:
          :  # frequencies                          18      :
          :  # imaginary freq.                       0      :
          :  linear?                             false      :
          :  only rotor calc.                    false      :
          :  symmetry                               cs      :
          :  rotational number                       1      :
          :  scaling factor                  1.0000000      :
          :  rotor cutoff                   50.0000000 cm⁻¹ :
          :  imag. cutoff                  -20.0000000 cm⁻¹ :
          :.................................................:

    mode    ω/cm⁻¹     T·S(HO)/kcal·mol⁻¹    T·S(FR)/kcal·mol⁻¹   T·S(vib)
   ------------------------------------------------------------------------
       1    165.86    -0.73998 ( 99.18%)    -0.70059 (  0.82%)    -0.73966
   ------------------------------------------------------------------------

   temp. (K)  partition function   enthalpy   heat capacity  entropy
                                   cal/mol     cal/K/mol   cal/K/mol   J/K/mol
 298.15  VIB   2.28                  790.159      6.593      4.287
         ROT  0.147E+05              888.752      2.981     22.051
         INT  0.335E+05             1678.912      9.573     26.337
         TR   0.293E+27             1481.254      4.968     37.325
         TOT                        3160.1656    14.5416    63.6620   266.3620

       T/K    H(0)-H(T)+PV         H(T)/Eh          T*S/Eh         G(T)/Eh
   ------------------------------------------------------------------------
    298.15    0.503604E-02    0.680369E-01    0.302479E-01    0.377890E-01
   ------------------------------------------------------------------------

         :::::::::::::::::::::::::::::::::::::::::::::::::::::
         ::                  THERMODYNAMIC                  ::
         :::::::::::::::::::::::::::::::::::::::::::::::::::::
         :: total free energy         -10.756796535158 Eh   ::
         ::.................................................::
         :: total energy              -10.794585494967 Eh   ::
         :: zero point energy           0.063000807559 Eh   ::
         :: G(RRHO) w/o ZPVE           -0.025211847749 Eh   ::
         :: G(RRHO) contrib.            0.037788959810 Eh   ::
         :::::::::::::::::::::::::::::::::::::::::::::::::::::

optimized geometry written to: xtbopt.xyz


           -------------------------------------------------
          | TOTAL ENERGY              -10.794585494967 Eh   |
          | TOTAL ENTHALPY            -10.726548642959 Eh   |
          | TOTAL FREE ENERGY         -10.756796535158 Eh   |
          | GRADIENT NORM               0.000324982749 Eh/α |
          | HOMO-LUMO GAP              13.339969583949 eV   |
           -------------------------------------------------

------------------------------------------------------------------------
 * finished run on 2025/06/07 at 21:26:38.073     
------------------------------------------------------------------------
 total:
 * wall-time:     0 d,  0 h,  0 min,  0.133 sec
 *  cpu-time:     0 d,  0 h,  0 min,  0.133 sec
 * ratio c/w:     1.000 speedup
 SCF:
 * wall-time:     0 d,  0 h,  0 min,  0.004 sec
 *  cpu-time:     0 d,  0 h,  0 min,  0.004 sec
 * ratio c/w:     1.000 speedup
 analytical hessian:
 * wall-time:     0 d,  0 h,  0 min,  0.105 sec
 *  cpu-time:     0 d,  0 h,  0 min,  0.105 sec
 * ratio c/w:     1.000 speedup

