8
 energy: -10.792415503585 gnorm: 0.050561268735 xtb: 6.7.1 (edcfbbe)
C            0.84891624192783       -3.71338373235733       -0.41403745207189
C            1.59679634384502       -2.57457855172670        0.23691679732687
O            1.12560069043861       -1.32880249774447       -0.04059309098539
H            0.87766777080060       -3.62001820999277       -1.49817033496357
H            1.29357215094637       -4.66928871909259       -0.13881271699103
H           -0.19324803080234       -3.71510371132628       -0.09969693285983
H            2.66641874573843       -2.57857734333028       -0.02574616871073
H            1.61107144710549       -2.66676700442957        1.33473351925557
8
 energy: -10.793790751048 gnorm: 0.029787265939 xtb: 6.7.1 (edcfbbe)
C            0.84886266722357       -3.71849553271926       -0.41411569857098
C            1.58815297659378       -2.56157076438167        0.23163902852171
O            1.13244317653213       -1.33257889782976       -0.03595025423937
H            0.87475195549378       -3.61918134655612       -1.49718597159438
H            1.29842399364087       -4.67018825148399       -0.13459334701850
H           -0.19388542822050       -3.71459608394671       -0.10385485082646
H            2.66646404709857       -2.58053841540764       -0.02684350202967
H            1.61158197163780       -2.66937047767484        1.33549821575766
8
 energy: -10.794557429797 gnorm: 0.005185149157 xtb: 6.7.1 (edcfbbe)
C            0.84593746646045       -3.71977243656110       -0.41627277242782
C            1.57458501850378       -2.53874051384663        0.22371413697684
O            1.13594413743761       -1.33794808523714       -0.03396326463662
H            0.87070293945999       -3.62249169173080       -1.49940844826977
H            1.30705484027785       -4.65954298096397       -0.12617712677377
H           -0.19758781732570       -3.71764092565751       -0.10924375515530
H            2.66852391211378       -2.59034594726455       -0.02017001043874
H            1.62163486307225       -2.68003718873829        1.33611486072517
8
 energy: -10.794584184642 gnorm: 0.000705543946 xtb: 6.7.1 (edcfbbe)
C            0.84551065776315       -3.71887100245197       -0.41658844480574
C            1.57365279561529       -2.53791969482503        0.22319553346332
O            1.13489033579150       -1.33303335304830       -0.03443512709285
H            0.87110356037792       -3.62429138916987       -1.49997389603963
H            1.30725105119013       -4.65835883050848       -0.12587194011886
H           -0.19787122259968       -3.71928353537973       -0.10893957562709
H            2.66835899225499       -2.59255285758298       -0.01809991309768
H            1.62389918960670       -2.68220910703363        1.33530698331853
8
 energy: -10.794585494962 gnorm: 0.000325126132 xtb: 6.7.1 (edcfbbe)
C            0.84497340417543       -3.71773592741740       -0.41694879425888
C            1.57300973507886       -2.53723828150195        0.22299952616381
O            1.13393222204990       -1.33258769982537       -0.03510100352360
H            0.87106926618983       -3.62517195952807       -1.50053100127317
H            1.30780689919787       -4.65639268933417       -0.12504277409331
H           -0.19844008056480       -3.71992039757572       -0.10924641486896
H            2.66856161331659       -2.59377262066907       -0.01668460462316
H            1.62588230055633       -2.68370019414824        1.33514868647726
