1
 energy: -0.393482763936 gnorm: 0.000000000000 xtb: 6.7.1 (edcfbbe)
H           -2.01049259494701       -5.72438287923910       -2.38124369122842
