 Entering Gaussian System
 *********************************************
 Gaussian 98:
 frequency output generated by the xtb code
 *********************************************
                         Standard orientation:
 --------------------------------------------------------------------
  Center     Atomic     Atomic              Coordinates (Angstroms)
  Number     Number      Type              X           Y           Z
 --------------------------------------------------------------------
    1          6             0       -1.733481    0.558444   -0.287150
    2          6             0       -0.886059   -0.341479    0.552306
    3          6             0        1.309384   -0.214452   -0.282496
    4          8             0        0.214524   -0.923187   -0.138813
    5          8             0        1.524608    0.902236    0.059708
    6          1             0       -2.076102    0.065654   -1.203880
    7          1             0       -2.570003    0.936519    0.299875
    8          1             0       -1.152578    1.435580   -0.625847
    9          1             0       -1.478403   -1.225459    0.864531
   10          1             0       -0.552938    0.158132    1.475975
   11          1             0        2.070497   -0.837868   -0.816827
 --------------------------------------------------------------------
     1 basis functions        1 primitive gaussians
     1 alpha electrons        1 beta electrons

 Harmonic frequencies (cm**-1), IR intensities (km*mol⁻¹),
 Raman scattering activities (A**4/amu), Raman depolarization ratios,
 reduced masses (AMU), force constants (mDyne/A) and normal coordinates:
                      1                      2                      3
                        a                      a                      a 
 Frequencies --   -78.8776               266.4908               310.2145
 Red. masses --    11.6035                10.5234                 9.5412
 Frc consts  --     0.0000                 0.0000                 0.0000
 IR Inten    --     2.2944                10.0502                16.3718
 Raman Activ --     0.0000                 0.0000                 0.0000
 Depolar     --     0.0000                 0.0000                 0.0000
 Atom AN      X      Y      Z        X      Y      Z        X      Y      Z
   1   6     0.44   0.29   0.06     0.20  -0.08  -0.10     0.31  -0.10  -0.18
   2   6     0.01  -0.20  -0.03     0.37   0.29   0.12    -0.16  -0.15   0.24
   3   6    -0.05  -0.03   0.07    -0.12  -0.01  -0.19    -0.35   0.25  -0.37
   4   8     0.09  -0.26   0.12    -0.05  -0.13  -0.17    -0.08   0.02   0.26
   5   8    -0.54   0.17  -0.24    -0.44  -0.13   0.36     0.26  -0.00   0.11
   6   1     0.15   0.19  -0.05    -0.01  -0.14   0.06     0.20  -0.02  -0.10
   7   1     0.11   0.09  -0.00     0.10   0.07  -0.03     0.00  -0.03  -0.17
   8   1     0.21   0.07   0.13     0.04  -0.07  -0.17     0.12  -0.01   0.07
   9   1    -0.07  -0.05  -0.12     0.10   0.15   0.21    -0.06  -0.06  -0.03
  10   1    -0.03  -0.15   0.05     0.22   0.20  -0.07    -0.10  -0.06   0.09
  11   1     0.06   0.01   0.11    -0.03   0.08  -0.14    -0.19   0.12  -0.32
                      4                      5                      6
                        a                      a                      a 
 Frequencies --   401.4769               308.8699               580.5347
 Red. masses --     9.1386                 4.6804                11.9558
 Frc consts  --     0.0000                 0.0000                 0.0000
 IR Inten    --    20.8195                31.3009                51.6416
 Raman Activ --     0.0000                 0.0000                 0.0000
 Depolar     --     0.0000                 0.0000                 0.0000
 Atom AN      X      Y      Z        X      Y      Z        X      Y      Z
   1   6    -0.28   0.13  -0.03    -0.12   0.14   0.01     0.03  -0.07   0.04
   2   6     0.11   0.21  -0.21    -0.10  -0.13  -0.21    -0.09  -0.03   0.12
   3   6     0.13  -0.05  -0.27     0.02   0.10  -0.15     0.49  -0.19  -0.29
   4   8     0.27  -0.20   0.40     0.21  -0.15   0.26    -0.09   0.54   0.13
   5   8    -0.14  -0.14   0.10     0.03   0.03   0.11    -0.30  -0.18   0.05
   6   1     0.05   0.18  -0.12    -0.46  -0.02   0.18     0.06  -0.03  -0.01
   7   1    -0.18  -0.23   0.03     0.23   0.34   0.18    -0.03   0.03  -0.10
   8   1    -0.21   0.23   0.26     0.13  -0.22  -0.39     0.15  -0.15  -0.09
   9   1    -0.01   0.05  -0.13    -0.06  -0.03  -0.10    -0.00  -0.08  -0.10
  10   1    -0.03   0.03  -0.03    -0.08  -0.06  -0.02    -0.16  -0.12   0.15
  11   1    -0.02   0.07  -0.23    -0.04   0.06  -0.15     0.06  -0.09  -0.05
                      7                      8                      9
                        a                      a                      a 
 Frequencies --   724.1604               850.4028               822.0311
 Red. masses --     3.4188                11.5708                 4.5469
 Frc consts  --     0.0000                 0.0000                 0.0000
 IR Inten    --    41.6257                54.4305                13.3033
 Raman Activ --     0.0000                 0.0000                 0.0000
 Depolar     --     0.0000                 0.0000                 0.0000
 Atom AN      X      Y      Z        X      Y      Z        X      Y      Z
   1   6     0.10  -0.02   0.01     0.17  -0.17   0.06    -0.13  -0.19  -0.09
   2   6     0.29   0.24   0.02     0.36  -0.15  -0.50     0.09   0.10   0.07
   3   6    -0.15  -0.03   0.16    -0.02   0.07   0.02     0.07  -0.15   0.41
   4   8    -0.09   0.02   0.01    -0.48   0.19   0.30    -0.01   0.06  -0.08
   5   8     0.01  -0.02  -0.06     0.04   0.04   0.01    -0.03   0.04  -0.12
   6   1    -0.00  -0.27   0.15    -0.08   0.14  -0.04    -0.12   0.20  -0.10
   7   1    -0.00  -0.12   0.03     0.11  -0.18   0.18     0.05   0.16  -0.04
   8   1    -0.24   0.07  -0.22     0.04  -0.03   0.04     0.32  -0.14   0.27
   9   1    -0.16  -0.01  -0.58     0.05   0.05   0.10    -0.02  -0.00  -0.14
  10   1    -0.04  -0.36   0.25     0.00   0.03  -0.11     0.07   0.01  -0.01
  11   1    -0.08   0.02  -0.05    -0.14  -0.10   0.03    -0.22   0.21  -0.53
                     10                     11                     12
                        a                      a                      a 
 Frequencies --   876.1422               944.7996              1040.0856
 Red. masses --     4.5141                10.1305                 7.0415
 Frc consts  --     0.0000                 0.0000                 0.0000
 IR Inten    --     4.7534                67.8028                63.8048
 Raman Activ --     0.0000                 0.0000                 0.0000
 Depolar     --     0.0000                 0.0000                 0.0000
 Atom AN      X      Y      Z        X      Y      Z        X      Y      Z
   1   6    -0.23  -0.21   0.02    -0.14   0.12   0.14    -0.25   0.31   0.11
   2   6     0.20   0.22   0.02     0.07  -0.02  -0.02     0.31  -0.24  -0.14
   3   6    -0.18   0.13  -0.25     0.43   0.14  -0.05    -0.29  -0.05   0.12
   4   8    -0.01  -0.09   0.03    -0.39  -0.43  -0.01     0.13   0.18   0.09
   5   8     0.07  -0.00   0.07     0.10   0.26   0.04    -0.02  -0.13  -0.04
   6   1    -0.04   0.15  -0.09     0.21  -0.09  -0.01     0.23  -0.11  -0.00
   7   1    -0.01   0.22  -0.12    -0.22   0.04  -0.25    -0.27   0.12  -0.33
   8   1     0.37  -0.21   0.27     0.09  -0.12  -0.15     0.11  -0.12  -0.18
   9   1    -0.04   0.01  -0.27    -0.18   0.15   0.10     0.32  -0.19   0.06
  10   1     0.07  -0.10   0.06     0.07  -0.15   0.07     0.06  -0.04  -0.03
  11   1     0.15  -0.17   0.45    -0.01   0.04  -0.12    -0.08   0.02  -0.04
                     13                     14                     15
                        a                      a                      a 
 Frequencies --  1100.5234              1101.1528              1155.0095
 Red. masses --     9.4578                 3.7568                 1.9354
 Frc consts  --     0.0000                 0.0000                 0.0000
 IR Inten    --    22.1906                14.7709                 5.8855
 Raman Activ --     0.0000                 0.0000                 0.0000
 Depolar     --     0.0000                 0.0000                 0.0000
 Atom AN      X      Y      Z        X      Y      Z        X      Y      Z
   1   6     0.20  -0.21   0.47    -0.02  -0.05   0.08    -0.00  -0.05  -0.03
   2   6    -0.35   0.36  -0.42     0.00  -0.21  -0.09    -0.10   0.03  -0.05
   3   6    -0.08  -0.02   0.04    -0.11  -0.05   0.01     0.14   0.13   0.00
   4   8     0.13  -0.04  -0.01     0.23   0.26   0.04     0.08  -0.04  -0.01
   5   8     0.00  -0.04  -0.01    -0.03  -0.07  -0.01    -0.07   0.08   0.06
   6   1     0.25  -0.18   0.10     0.05  -0.08   0.04     0.10  -0.18   0.07
   7   1    -0.06  -0.02  -0.07    -0.06   0.06  -0.09     0.10   0.28  -0.03
   8   1     0.16  -0.17  -0.01    -0.02   0.01   0.03    -0.13   0.15   0.17
   9   1     0.04   0.03  -0.06    -0.65   0.43   0.07     0.14  -0.11  -0.02
  10   1    -0.15   0.13  -0.11     0.36  -0.07  -0.15     0.14  -0.06  -0.04
  11   1    -0.01   0.08  -0.07    -0.04  -0.05   0.00    -0.53  -0.62  -0.06
                     16                     17                     18
                        a                      a                      a 
 Frequencies --  1209.3372              1236.7763              1270.1116
 Red. masses --     2.8872                 2.4645                 2.2103
 Frc consts  --     0.0000                 0.0000                 0.0000
 IR Inten    --    54.1293               109.4141               130.8447
 Raman Activ --     0.0000                 0.0000                 0.0000
 Depolar     --     0.0000                 0.0000                 0.0000
 Atom AN      X      Y      Z        X      Y      Z        X      Y      Z
   1   6     0.00  -0.01   0.13    -0.03  -0.16   0.13    -0.08  -0.13  -0.05
   2   6     0.19  -0.03   0.13     0.18  -0.18   0.02     0.09   0.12  -0.17
   3   6    -0.05   0.06   0.04     0.05  -0.02  -0.02    -0.08   0.01   0.04
   4   8     0.19  -0.05  -0.17    -0.13  -0.01   0.03     0.11   0.02  -0.05
   5   8    -0.03   0.01   0.01     0.01  -0.00  -0.01    -0.00  -0.07  -0.03
   6   1    -0.03   0.32  -0.16     0.19  -0.01  -0.04     0.12   0.03  -0.08
   7   1    -0.12  -0.20  -0.04     0.14   0.55  -0.12     0.15   0.27   0.04
   8   1     0.04  -0.14  -0.27    -0.33   0.21   0.04    -0.11   0.08   0.08
   9   1    -0.20   0.15  -0.01    -0.10  -0.02  -0.23     0.02   0.20   0.50
  10   1    -0.50   0.26   0.09    -0.27   0.39  -0.14    -0.34  -0.45   0.38
  11   1    -0.29  -0.32  -0.00     0.14   0.16  -0.00     0.02   0.09  -0.01
                     19                     20                     21
                        a                      a                      a 
 Frequencies --  1295.1973              1355.6031              1745.7716
 Red. masses --     2.1505                 2.3203                13.4950
 Frc consts  --     0.0000                 0.0000                 0.0000
 IR Inten    --   195.7584                 8.9213               198.5910
 Raman Activ --     0.0000                 0.0000                 0.0000
 Depolar     --     0.0000                 0.0000                 0.0000
 Atom AN      X      Y      Z        X      Y      Z        X      Y      Z
   1   6     0.02  -0.20   0.15    -0.30   0.12  -0.11     0.00   0.00  -0.01
   2   6    -0.15   0.11   0.04     0.02  -0.04   0.06    -0.02  -0.01   0.03
   3   6    -0.03  -0.01   0.01    -0.01  -0.00  -0.00     0.17   0.70   0.20
   4   8     0.01   0.01   0.05     0.00   0.00  -0.01    -0.02  -0.03  -0.01
   5   8     0.00  -0.00   0.00    -0.00   0.01   0.00    -0.11  -0.61  -0.19
   6   1     0.18   0.50  -0.36     0.57  -0.19  -0.14    -0.00   0.01   0.00
   7   1     0.07   0.10   0.02     0.32  -0.08   0.56     0.00  -0.01   0.00
   8   1    -0.25  -0.03  -0.44     0.19  -0.15  -0.07     0.01  -0.01   0.00
   9   1     0.11  -0.09  -0.05    -0.08   0.02  -0.08    -0.02  -0.00  -0.02
  10   1     0.39  -0.18  -0.04    -0.02   0.09  -0.04     0.03   0.03  -0.02
  11   1    -0.00   0.01  -0.00    -0.01  -0.01  -0.01    -0.02   0.10   0.05
                     22                     23                     24
                        a                      a                      a 
 Frequencies --  2617.8566              2763.2261              2808.8060
 Red. masses --     1.5990                 1.7504                 1.7449
 Frc consts  --     0.0000                 0.0000                 0.0000
 IR Inten    --   484.8692               138.7138                77.3822
 Raman Activ --     0.0000                 0.0000                 0.0000
 Depolar     --     0.0000                 0.0000                 0.0000
 Atom AN      X      Y      Z        X      Y      Z        X      Y      Z
   1   6    -0.00   0.00   0.00    -0.01  -0.00  -0.00    -0.15  -0.21   0.05
   2   6     0.00  -0.01  -0.00     0.14   0.21  -0.03    -0.01  -0.01   0.02
   3   6    -0.14   0.14   0.11    -0.02   0.01   0.01    -0.00   0.01   0.00
   4   8    -0.04   0.01   0.02     0.01   0.01  -0.01    -0.00   0.00   0.00
   5   8    -0.02   0.01   0.01     0.00   0.00  -0.00     0.00  -0.00  -0.00
   6   1     0.01   0.02   0.01     0.02   0.02   0.03     0.03   0.04   0.14
   7   1     0.00  -0.00  -0.01     0.00  -0.00  -0.00     0.01  -0.05  -0.02
   8   1    -0.02  -0.03   0.00     0.02   0.03  -0.02     0.49   0.75  -0.30
   9   1     0.03   0.05  -0.01    -0.51  -0.75   0.28     0.04   0.04  -0.01
  10   1    -0.02  -0.02  -0.02    -0.04  -0.05  -0.16    -0.03  -0.04  -0.05
  11   1     0.66  -0.54  -0.46     0.04  -0.03  -0.02     0.01  -0.01  -0.01
                     25                     26                     27
                        a                      a                      a 
 Frequencies --  2855.5793              2938.2535              3014.9418
 Red. masses --     1.6103                 1.5988                 1.7266
 Frc consts  --     0.0000                 0.0000                 0.0000
 IR Inten    --    46.5292               136.1006                53.1108
 Raman Activ --     0.0000                 0.0000                 0.0000
 Depolar     --     0.0000                 0.0000                 0.0000
 Atom AN      X      Y      Z        X      Y      Z        X      Y      Z
   1   6    -0.02  -0.01   0.01    -0.07  -0.07  -0.21    -0.19   0.10   0.14
   2   6    -0.06  -0.08  -0.21    -0.01  -0.02  -0.02    -0.01   0.01   0.01
   3   6    -0.01   0.00   0.01     0.01  -0.00  -0.00    -0.00  -0.00  -0.00
   4   8     0.01  -0.01  -0.01    -0.00   0.00   0.00     0.00  -0.00  -0.00
   5   8     0.00   0.00  -0.00    -0.00   0.00   0.00    -0.00   0.00   0.00
   6   1    -0.02  -0.02  -0.03     0.30   0.44   0.79    -0.03  -0.02  -0.03
   7   1     0.02  -0.01  -0.01     0.03  -0.03  -0.05     0.75  -0.32  -0.52
   8   1     0.04   0.07  -0.02    -0.09  -0.14   0.01    -0.05  -0.01   0.04
   9   1    -0.11  -0.15   0.01     0.01   0.02  -0.01     0.00   0.01  -0.00
  10   1     0.29   0.44   0.78     0.01   0.03   0.05    -0.00  -0.01  -0.02
  11   1     0.02  -0.02  -0.02    -0.01   0.01   0.01    -0.01   0.00   0.00
