11
 energy: -17.036915867904 gnorm: 0.069825525270 xtb: 6.7.1 (edcfbbe)
C           -1.73348106359337        0.55844397127658       -0.28715040783749
C           -0.88605936133227       -0.34147876414524        0.55230591135977
C            1.30938373254645       -0.21445204319979       -0.28249586691153
O            0.21452396127246       -0.92318661559817       -0.13881329873634
O            1.52460829999676        0.90223632856546        0.05970847550970
H           -2.07610167932173        0.06565370077162       -1.20388005473154
H           -2.57000307231580        0.93651885353339        0.29987485946410
H           -1.15257821231231        1.43557996600708       -0.62584666648083
H           -1.47840294795612       -1.22545842528586        0.86453082743620
H           -0.55293809111546        0.15813199807860        1.47597502334408
H            2.07049676775027       -0.83786823842777       -0.81682709253324
