 Entering Gaussian System
 *********************************************
 Gaussian 98:
 frequency output generated by the xtb code
 *********************************************
                         Standard orientation:
 --------------------------------------------------------------------
  Center     Atomic     Atomic              Coordinates (Angstroms)
  Number     Number      Type              X           Y           Z
 --------------------------------------------------------------------
    1          6             0       -0.013451    4.721069   -0.021514
    2          8             0        1.127460    4.141981   -0.358878
    3          8             0       -1.040584    4.229440    0.324224
    4          1             0        1.808231    4.786123   -0.601232
 --------------------------------------------------------------------
     1 basis functions        1 primitive gaussians
     1 alpha electrons        1 beta electrons

 Harmonic frequencies (cm**-1), IR intensities (km*mol⁻¹),
 Raman scattering activities (A**4/amu), Raman depolarization ratios,
 reduced masses (AMU), force constants (mDyne/A) and normal coordinates:
                      1                      2                      3
                        a                      a                      a 
 Frequencies --   518.2725               550.4412              1116.7868
 Red. masses --     3.3354                13.4974                 6.2535
 Frc consts  --     0.0000                 0.0000                 0.0000
 IR Inten    --   104.9761                 0.9374                31.5481
 Raman Activ --     0.0000                 0.0000                 0.0000
 Depolar     --     0.0000                 0.0000                 0.0000
 Atom AN      X      Y      Z        X      Y      Z        X      Y      Z
   1   6    -0.10  -0.01  -0.31     0.02  -0.59   0.02    -0.25   0.21   0.07
   2   8    -0.05  -0.01  -0.15     0.46   0.14  -0.15     0.37   0.06  -0.12
   3   8     0.07   0.01   0.21    -0.46   0.31   0.13    -0.30  -0.11   0.10
   4   1     0.27   0.04   0.86    -0.08   0.26   0.01     0.55  -0.54  -0.15
                      4                      5                      6
                        a                      a                      a 
 Frequencies --  1209.0558              1883.9794              3446.1490
 Red. masses --    11.0295                13.4745                 1.8605
 Frc consts  --     0.0000                 0.0000                 0.0000
 IR Inten    --   377.2600               348.5327                54.4811
 Raman Activ --     0.0000                 0.0000                 0.0000
 Depolar     --     0.0000                 0.0000                 0.0000
 Atom AN      X      Y      Z        X      Y      Z        X      Y      Z
   1   6    -0.34   0.48   0.09     0.67   0.32  -0.23     0.02  -0.00  -0.01
   2   8     0.44  -0.42  -0.12    -0.04  -0.02   0.01     0.16   0.16  -0.06
   3   8    -0.07  -0.09   0.03    -0.53  -0.27   0.18    -0.00  -0.00   0.00
   4   1    -0.30   0.37   0.08    -0.05   0.07   0.01    -0.69  -0.64   0.25
