4
 energy: -10.688133426622 gnorm: 0.039706516424 xtb: 6.7.1 (edcfbbe)
C           -0.01129783587652        4.73842382631709       -0.02290067645162
O            1.12163967623537        4.12888169902153       -0.35647781578374
O           -1.01140097822743        4.22592338538490        0.31511031867377
H            1.78262320786858        4.78539348927646       -0.59309431643840
4
 energy: -10.688947838347 gnorm: 0.011663436567 xtb: 6.7.1 (edcfbbe)
C           -0.01277130419011        4.73318494027963       -0.02222340394207
O            1.12717516307469        4.13407036747371       -0.35845032459063
O           -1.03134432212276        4.22533594743989        0.32145691664766
H            1.79850453323819        4.78603114480676       -0.59814567811494
4
 energy: -10.689083458444 gnorm: 0.007392410949 xtb: 6.7.1 (edcfbbe)
C           -0.01352201427333        4.72705251574897       -0.02173643922102
O            1.12779343659730        4.13818744276812       -0.35881988471373
O           -1.03789304116106        4.22711791233695        0.32346132183250
H            1.80518568883710        4.78626452914594       -0.60026748789773
4
 energy: -10.689126881305 gnorm: 0.002032447586 xtb: 6.7.1 (edcfbbe)
C           -0.01367043777754        4.72177131483804       -0.02147344766421
O            1.12754489537515        4.14162339807314       -0.35888539045204
O           -1.04086946691597        4.22903738848143        0.32432686386530
H            1.80855907931835        4.78619029860736       -0.60133051574903
4
 energy: -10.689128798458 gnorm: 0.000369996849 xtb: 6.7.1 (edcfbbe)
C           -0.01347607961740        4.72106805129814       -0.02150581698859
O            1.12743979593354        4.14198764344642       -0.35886717326336
O           -1.04060748685433        4.22943382162752        0.32422741494223
H            1.80820784053819        4.78613288362790       -0.60121691469028
