4
 energy: -10.688133426602 gnorm: 0.039707569550 xtb: 6.7.1 (edcfbbe)
C           -0.01345143526105        4.72106808425249       -0.02151400976620
O            1.12746023059654        4.14198111378755       -0.35887833790013
O           -1.04058420982565        4.22943983604883        0.32422366559057
H            1.80823080195798        4.78612236649041       -0.60123157989950
