 Entering Gaussian System
 *********************************************
 Gaussian 98:
 frequency output generated by the xtb code
 *********************************************
                         Standard orientation:
 --------------------------------------------------------------------
  Center     Atomic     Atomic              Coordinates (Angstroms)
  Number     Number      Type              X           Y           Z
 --------------------------------------------------------------------
    1          6             0       -3.545578   -3.574953   -0.231581
    2          1             0       -3.874412   -3.812132   -1.219068
    3          1             0       -3.222660   -4.352563    0.424575
    4          1             0       -3.535614   -2.559755    0.098212
 --------------------------------------------------------------------
     1 basis functions        1 primitive gaussians
     1 alpha electrons        1 beta electrons

 Harmonic frequencies (cm**-1), IR intensities (km*mol⁻¹),
 Raman scattering activities (A**4/amu), Raman depolarization ratios,
 reduced masses (AMU), force constants (mDyne/A) and normal coordinates:
                      1                      2                      3
                        a                      a                      a 
 Frequencies --   492.1919              1351.8774              1351.9855
 Red. masses --     3.2209                 2.1018                 2.1017
 Frc consts  --     0.0000                 0.0000                 0.0000
 IR Inten    --    77.1129                 2.5011                 2.5627
 Raman Activ --     0.0000                 0.0000                 0.0000
 Depolar     --     0.0000                 0.0000                 0.0000
 Atom AN      X      Y      Z        X      Y      Z        X      Y      Z
   1   6     0.42   0.05  -0.15    -0.10   0.18  -0.23     0.04   0.25   0.18
   2   1    -0.48  -0.05   0.17     0.09  -0.57   0.07     0.10  -0.49   0.12
   3   1    -0.48  -0.05   0.17     0.01   0.14   0.08    -0.14  -0.51  -0.55
   4   1    -0.48  -0.05   0.17     0.26  -0.20   0.66    -0.09   0.12  -0.21
                      4                      5                      6
                        a                      a                      a 
 Frequencies --  3151.5180              3244.6641              3244.8138
 Red. masses --     1.0079                 2.1270                 2.1271
 Frc consts  --     0.0000                 0.0000                 0.0000
 IR Inten    --     0.0002                19.0385                18.9816
 Raman Activ --     0.0000                 0.0000                 0.0000
 Depolar     --     0.0000                 0.0000                 0.0000
 Atom AN      X      Y      Z        X      Y      Z        X      Y      Z
   1   6    -0.00   0.00   0.00     0.10   0.05   0.30     0.05  -0.31   0.04
   2   1    -0.18  -0.13  -0.53    -0.24  -0.17  -0.71     0.02  -0.03   0.06
   3   1     0.17  -0.42   0.36    -0.12   0.34  -0.24    -0.20   0.45  -0.41
   4   1     0.01   0.55   0.18     0.01  -0.33  -0.07     0.01   0.66   0.23
