4
 energy: -3.562726029239 gnorm: 0.013275500553 xtb: 6.7.1 (edcfbbe)
C           -3.54557756323103       -3.57495231759867       -0.23158090062404
H           -3.87441117222607       -3.81213132345736       -1.21906786149116
H           -3.22265948410471       -4.35256270910805        0.42457495270737
H           -3.53561322106022       -2.55975519236173        0.09821165790166
