4
 energy: -3.562726029239 gnorm: 0.013275496358 xtb: 6.7.1 (edcfbbe)
C           -3.54550937549657       -3.57481582941348       -0.23127332732125
H           -3.87769711942095       -3.81464549534826       -1.22906181162974
H           -3.21934696215841       -4.36104360739356        0.43107399478971
H           -3.53562987292407       -2.54896922784469        0.10132454416129
4
 energy: -3.562964157028 gnorm: 0.002145878613 xtb: 6.7.1 (edcfbbe)
C           -3.54552015598433       -3.57489630059349       -0.23144984922642
H           -3.87487018165666       -3.81255034220246       -1.22055351881808
H           -3.22215058775265       -4.35399468131629        0.42547178418055
H           -3.53564240460636       -2.55803283588775        0.09859498386395
4
 energy: -3.562970270383 gnorm: 0.000121009977 xtb: 6.7.1 (edcfbbe)
C           -3.54554301259775       -3.57494633390354       -0.23155184725948
H           -3.87434431697538       -3.81213615459847       -1.21896439853370
H           -3.22267684944403       -4.35256312397176        0.42445389619946
H           -3.53561915098284       -2.55982854752621        0.09812574959373
4
 energy: -3.562970281996 gnorm: 0.000081593071 xtb: 6.7.1 (edcfbbe)
C           -3.54555803638443       -3.57497047793841       -0.23159951645867
H           -3.87438695652682       -3.81214948207035       -1.21908803911823
H           -3.22263817612202       -4.35258032385081        0.42455610689549
H           -3.53560016096673       -2.55977387614042        0.09819484868142
