 Entering Gaussian System
 *********************************************
 Gaussian 98:
 frequency output generated by the xtb code
 *********************************************
                         Standard orientation:
 --------------------------------------------------------------------
  Center     Atomic     Atomic              Coordinates (Angstroms)
  Number     Number      Type              X           Y           Z
 --------------------------------------------------------------------
    1          6             0        1.368902   -4.402597   -0.391479
    2          6             0        3.328654   -3.333452    0.471251
    3          8             0        2.635207   -4.057625   -0.375791
    4          1             0        0.999851   -5.012433   -1.193649
    5          1             0        3.160365   -4.405246   -1.137911
    6          1             0        0.731119   -4.062005    0.406278
    7          1             0        4.374153   -3.171376    0.291705
    8          1             0        2.826028   -2.919162    1.328524
 --------------------------------------------------------------------
     1 basis functions        1 primitive gaussians
     1 alpha electrons        1 beta electrons

 Harmonic frequencies (cm**-1), IR intensities (km*mol⁻¹),
 Raman scattering activities (A**4/amu), Raman depolarization ratios,
 reduced masses (AMU), force constants (mDyne/A) and normal coordinates:
                      1                      2                      3
                        a                      a                      a 
 Frequencies --   417.7350               451.8010               538.1961
 Red. masses --     2.6693                 8.2514                 8.9470
 Frc consts  --     0.0000                 0.0000                 0.0000
 IR Inten    --     0.0191                 1.3828                64.6324
 Raman Activ --     0.0000                 0.0000                 0.0000
 Depolar     --     0.0000                 0.0000                 0.0000
 Atom AN      X      Y      Z        X      Y      Z        X      Y      Z
   1   6    -0.06   0.23  -0.14    -0.16  -0.22  -0.28    -0.09   0.33  -0.21
   2   6     0.06  -0.23   0.14     0.38   0.07  -0.05    -0.09   0.33  -0.21
   3   8     0.00  -0.00  -0.00    -0.27   0.18   0.39     0.12  -0.44   0.28
   4   1     0.14  -0.52   0.33     0.19  -0.07  -0.19     0.01  -0.05   0.03
   5   1     0.00   0.00  -0.00    -0.07   0.05   0.10    -0.05   0.20  -0.13
   6   1    -0.03   0.11  -0.07    -0.25  -0.19  -0.19     0.09  -0.33   0.21
   7   1    -0.14   0.52  -0.33     0.10  -0.12  -0.23     0.01  -0.05   0.03
   8   1     0.03  -0.11   0.07     0.34   0.13   0.06     0.09  -0.33   0.21
                      4                      5                      6
                        a                      a                      a 
 Frequencies --   593.0828               625.2138               849.3084
 Red. masses --     2.2575                 2.1670                 2.0275
 Frc consts  --     0.0000                 0.0000                 0.0000
 IR Inten    --    59.8211                 0.0000               338.0496
 Raman Activ --     0.0000                 0.0000                 0.0000
 Depolar     --     0.0000                 0.0000                 0.0000
 Atom AN      X      Y      Z        X      Y      Z        X      Y      Z
   1   6    -0.01   0.02  -0.01    -0.05   0.19  -0.12    -0.02   0.06  -0.04
   2   6    -0.01   0.02  -0.01     0.05  -0.19   0.12    -0.02   0.06  -0.04
   3   8    -0.06   0.24  -0.15     0.00   0.00   0.00    -0.05   0.20  -0.13
   4   1     0.15  -0.55   0.35     0.01  -0.04   0.02    -0.00   0.01  -0.00
   5   1    -0.02   0.09  -0.06    -0.00  -0.00   0.00     0.18  -0.68   0.44
   6   1     0.01  -0.03   0.02     0.15  -0.55   0.35     0.08  -0.28   0.18
   7   1     0.15  -0.55   0.35    -0.01   0.04  -0.02    -0.00   0.01  -0.00
   8   1     0.01  -0.03   0.02    -0.15   0.55  -0.35     0.08  -0.28   0.18
                      7                      8                      9
                        a                      a                      a 
 Frequencies --   981.3811              1015.3194              1145.5655
 Red. masses --     2.7637                 8.2926                 8.2730
 Frc consts  --     0.0000                 0.0000                 0.0000
 IR Inten    --     0.0007                 3.4696                 4.6238
 Raman Activ --     0.0000                 0.0000                 0.0000
 Depolar     --     0.0000                 0.0000                 0.0000
 Atom AN      X      Y      Z        X      Y      Z        X      Y      Z
   1   6     0.10  -0.12  -0.23     0.47   0.23   0.17     0.27  -0.08  -0.24
   2   6    -0.19   0.07   0.19    -0.43  -0.26  -0.23     0.11  -0.17  -0.31
   3   8    -0.07  -0.04  -0.03    -0.10   0.07   0.15    -0.29   0.19   0.41
   4   1    -0.37  -0.02   0.12     0.39   0.06  -0.07    -0.20  -0.01   0.06
   5   1     0.22   0.12   0.10    -0.02   0.02   0.03    -0.06   0.04   0.09
   6   1     0.41   0.21   0.15    -0.06  -0.06  -0.06     0.37   0.16   0.10
   7   1    -0.07  -0.22  -0.31    -0.14  -0.23  -0.30     0.04   0.12   0.17
   8   1     0.38   0.23   0.20     0.10   0.03   0.01    -0.30  -0.20  -0.20
                     10                     11                     12
                        a                      a                      a 
 Frequencies --  1254.3545              1333.4552              1358.6487
 Red. masses --     2.3800                 1.9639                 2.5565
 Frc consts  --     0.0000                 0.0000                 0.0000
 IR Inten    --    66.6647                 7.3859                 1.1435
 Raman Activ --     0.0000                 0.0000                 0.0000
 Depolar     --     0.0000                 0.0000                 0.0000
 Atom AN      X      Y      Z        X      Y      Z        X      Y      Z
   1   6     0.20  -0.03  -0.12     0.03   0.01   0.00    -0.26  -0.06   0.01
   2   6    -0.02   0.12   0.20     0.02   0.02   0.02     0.13   0.15   0.18
   3   8     0.08   0.04   0.03     0.20   0.11   0.09     0.02  -0.01  -0.03
   4   1    -0.17  -0.00   0.07    -0.45   0.01   0.20     0.43  -0.03  -0.22
   5   1    -0.73  -0.40  -0.32     0.20   0.11   0.09     0.00  -0.00  -0.00
   6   1     0.03  -0.02  -0.05    -0.34  -0.21  -0.18     0.32   0.22   0.21
   7   1    -0.02  -0.10  -0.15    -0.03  -0.27  -0.41     0.00  -0.26  -0.41
   8   1    -0.03   0.02   0.05    -0.38  -0.19  -0.13    -0.40  -0.17  -0.11
                     13                     14                     15
                        a                      a                      a 
 Frequencies --  1472.1004              3073.5259              3105.6521
 Red. masses --    13.5062                 1.8463                 1.4157
 Frc consts  --     0.0000                 0.0000                 0.0000
 IR Inten    --   180.0525               113.1766               155.0975
 Raman Activ --     0.0000                 0.0000                 0.0000
 Depolar     --     0.0000                 0.0000                 0.0000
 Atom AN      X      Y      Z        X      Y      Z        X      Y      Z
   1   6     0.43   0.14   0.05    -0.00  -0.01  -0.02     0.13   0.01  -0.03
   2   6     0.28   0.24   0.26     0.02   0.00  -0.01     0.04   0.08   0.11
   3   8    -0.60  -0.33  -0.26    -0.12   0.08   0.18     0.00   0.00   0.00
   4   1     0.01   0.04   0.06     0.02   0.03   0.04    -0.13  -0.23  -0.30
   5   1     0.08   0.05   0.04     0.51  -0.34  -0.74    -0.00  -0.00  -0.00
   6   1    -0.07  -0.08  -0.09    -0.03   0.01   0.04    -0.33   0.18   0.42
   7   1     0.07   0.00  -0.02    -0.05  -0.01   0.00    -0.39  -0.06   0.07
   8   1    -0.13  -0.04  -0.00    -0.02   0.02   0.04     0.27  -0.22  -0.45
                     16                     17                     18
                        a                      a                      a 
 Frequencies --  3121.4622              3181.7084              3187.4176
 Red. masses --     1.4508                 2.1860                 2.1935
 Frc consts  --     0.0000                 0.0000                 0.0000
 IR Inten    --     7.8272                20.9065                50.8881
 Raman Activ --     0.0000                 0.0000                 0.0000
 Depolar     --     0.0000                 0.0000                 0.0000
 Atom AN      X      Y      Z        X      Y      Z        X      Y      Z
   1   6     0.14   0.01  -0.03    -0.01   0.12   0.20     0.01  -0.12  -0.19
   2   6    -0.04  -0.08  -0.11     0.20  -0.02  -0.11     0.20  -0.02  -0.11
   3   8     0.00  -0.00  -0.00     0.00   0.00   0.00     0.02  -0.01  -0.02
   4   1    -0.13  -0.22  -0.30    -0.20  -0.31  -0.41     0.19   0.31   0.41
   5   1    -0.01   0.01   0.01     0.00   0.00   0.00    -0.05   0.04   0.08
   6   1    -0.34   0.18   0.42     0.23  -0.12  -0.28    -0.22   0.11   0.27
   7   1     0.38   0.06  -0.07    -0.53  -0.09   0.09    -0.54  -0.09   0.09
   8   1    -0.27   0.22   0.45    -0.17   0.15   0.30    -0.16   0.15   0.30
