8
 energy: -10.277520260900 gnorm: 0.043730198575 xtb: 6.7.1 (edcfbbe)
C            1.36890211466999       -4.40259642524437       -0.39147850840201
C            3.32865349467323       -3.33345122875223        0.47125086753261
O            2.63520647277093       -4.05762487861980       -0.37579122346551
H            0.99985137810919       -5.01243260408319       -1.19364882608861
H            3.16036440273578       -4.40524542230947       -1.13791107295199
H            0.73111913037882       -4.06200432914038        0.40627834354465
H            4.37415298964434       -3.17137607133704        0.29170515113601
H            2.82602804830708       -2.91916219522215        1.32852395473841
