8
 energy: -10.277520261850 gnorm: 0.043721159363 xtb: 6.7.1 (edcfbbe)
C            1.33118214261890       -4.41253170581486       -0.38897941375172
C            3.34667362549569       -3.30999379366941        0.49693109716215
O            2.62069589338969       -4.04791875637099       -0.35475281722285
H            1.06585803464853       -5.02203109716341       -1.23323937029857
H            3.14245562597956       -4.39343245822170       -1.11152740296902
H            0.72610389968158       -4.04865107616884        0.42244263846093
H            4.38144589229094       -3.21034278273436        0.22498311116292
H            2.81002923589510       -2.91888872985642        1.34308390745616
8
 energy: -10.279602829179 gnorm: 0.028154700263 xtb: 6.7.1 (edcfbbe)
C            1.34618425727354       -4.40760936465502       -0.38953669366625
C            3.33884848038701       -3.32000558753685        0.48746435797019
O            2.62659188786606       -4.05195964894733       -0.36317445518773
H            1.04006202660574       -5.01721594055675       -1.21775437753166
H            3.14961712890833       -4.39810909673948       -1.12211703896733
H            0.73100861963666       -4.05438351623393        0.41758674552475
H            4.37816134031691       -3.19572578481110        0.25154997743566
H            2.81397060900574       -2.91878146051953        1.33492323442237
8
 energy: -10.280865476415 gnorm: 0.004551358448 xtb: 6.7.1 (edcfbbe)
C            1.37054686556299       -4.40107878331860       -0.39034328735244
C            3.32648074560117       -3.33462269271161        0.47100505998178
O            2.63535023353824       -4.05767563011749       -0.37600571239067
H            1.00016244531480       -5.01279149269353       -1.19379020995042
H            3.16047031488405       -4.40522466837479       -1.13809057500224
H            0.73308000592056       -4.06082227984665        0.40713858567193
H            4.37431937541718       -3.17133639350228        0.29131465817323
H            2.82403436376100       -2.92023845943503        1.32771323086883
8
 energy: -10.280877050917 gnorm: 0.001007835396 xtb: 6.7.1 (edcfbbe)
C            1.36901581731339       -4.40207926005590       -0.39099019894661
C            3.32804298622711       -3.33360899586132        0.47156854833330
O            2.63504786749075       -4.05748454642192       -0.37554264297296
H            1.00131324215525       -5.01255009952752       -1.19416324408120
H            3.16016314680649       -4.40505201130105       -1.13759743476990
H            0.73138370587877       -4.06160793012493        0.40666487643260
H            4.37401661377838       -3.17210288627618        0.29039764992363
H            2.82546097034985       -2.91930467043118        1.32860419608113
8
 energy: -10.280878013872 gnorm: 0.000325165714 xtb: 6.7.1 (edcfbbe)
C            1.36892653310165       -4.40258857437205       -0.39148141391657
C            3.32866930354129       -3.33343462242072        0.47125666884306
O            2.63522903015177       -4.05761042478581       -0.37578910664991
H            0.99988178974556       -5.01242528549315       -1.19365408418431
H            3.16039144054326       -4.40522688860283       -1.13790772968475
H            0.73113898079032       -4.06200121004163        0.40627380617471
H            4.37416857660094       -3.17135367742543        0.29171488481063
H            2.82603869552520       -2.91914971685837        1.32852872460714
