
                                 *****************
                                 * O   R   C   A *
                                 *****************

                                            #,                                       
                                            ###                                      
                                            ####                                     
                                            #####                                    
                                            ######                                   
                                           ########,                                 
                                     ,,################,,,,,                         
                               ,,#################################,,                 
                          ,,##########################################,,             
                       ,#########################################, ''#####,          
                    ,#############################################,,   '####,        
                  ,##################################################,,,,####,       
                ,###########''''           ''''###############################       
              ,#####''   ,,,,##########,,,,          '''####'''          '####       
            ,##' ,,,,###########################,,,                        '##       
           ' ,,###''''                  '''############,,,                           
         ,,##''                                '''############,,,,        ,,,,,,###''
      ,#''                                            '''#######################'''  
     '                                                          ''''####''''         
             ,#######,   #######,   ,#######,      ##                                
            ,#'     '#,  ##    ##  ,#'     '#,    #''#        ,####,   ,####,        
            ##       ##  ##   ,#'  ##            #'  '#       #'       #'  '#        
            ##       ##  #######   ##           ,######,      #####,   #    #        
            '#,     ,#'  ##    ##  '#,     ,#' ,#      #,     #,   #   #,  ,#        
             '#######'   ##     ##  '#######'  #'      '#     '####' # '####'        



                #########################################################
                #                        -***-                          #
                #          Department of theory and spectroscopy        #
                #                                                       #
                #                      Frank Neese                      #
                #                                                       #
                #     Directorship, Architecture, Infrastructure        #
                #                    SHARK, DRIVERS                     #
                #        Core code/Algorithms in most modules           #
                #                                                       #
                #        Max Planck Institute fuer Kohlenforschung      #
                #                Kaiser Wilhelm Platz 1                 #
                #                 D-45470 Muelheim/Ruhr                 #
                #                      Germany                          #
                #                                                       #
                #                  All rights reserved                  #
                #                        -***-                          #
                #########################################################


                         Program Version 6.0.1  -  RELEASE   -


 With contributions from (in alphabetic order):
[Max-Planck-Institut fuer Kohlenforschung]                               
  Daniel Aravena         : Magnetic Suceptibility                        
  Michael Atanasov       : Ab Initio Ligand Field Theory (pilot matlab implementation)
  Alexander A. Auer      : GIAO ZORA, VPT2 properties, NMR spectrum      
  Ute Becker             : All parallelization in ORCA, NUMFREQ, NUMCALC 
  Giovanni Bistoni       : ED, misc. LED, open-shell LED, HFLD           
  Martin Brehm           : Molecular dynamics                            
  Dmytro Bykov           : pre 5.0 version of the SCF Hessian            
  Marcos Casanova-Páez   : Triplet and SCS-CIS(D). UHF-(DLPNO)-IP/EA/STEOM-CCSD. UHF-CVS-IP/STEOM-CCSD   
  Vijay G. Chilkuri      : MRCI spin determinant printing, contributions to CSF-ICE 
  Pauline Colinet        : FMM embedding                                 
  Dipayan Datta          : RHF DLPNO-CCSD density                        
  Achintya Kumar Dutta   : EOM-CC, STEOM-CC                              
  Nicolas Foglia         : Exact transition moments, OPA infrastructure, MCD improvements    
  Dmitry Ganyushin       : Spin-Orbit,Spin-Spin,Magnetic field MRCI      
  Miquel Garcia-Rates    : C-PCM and meta-GGA Hessian, CCSD/C-PCM, Gaussian charge scheme 
  Tiago L. C. Gouveia    : GS-ROHF, GS-ROCIS                             
  Yang Guo               : DLPNO-NEVPT2, F12-NEVPT2, CIM, IAO-localization        
  Andreas Hansen         : Spin unrestricted coupled pair/coupled cluster methods 
  Ingolf Harden          : AUTO-CI MPn and infrastructure                
  Benjamin Helmich-Paris : MC-RPA, TRAH-(SCF,CASSCF), AVAS, COSX integrals, SCF dyn. polar. 
  Lee Huntington         : MR-EOM, pCC                                   
  Robert Izsak           : Overlap fitted RIJCOSX, COSX-SCS-MP3, EOM     
  Riya Kayal             : Wick's Theorem for AUTO-CI, AUTO-CI UHF-CCSDT 
  Emily Kempfer          : AUTO-CI, RHF CISDT and CCSDT                  
  Christian Kollmar      : KDIIS, OOCD, Brueckner-CCSD(T), CCSD density, CASPT2, CASPT2-K, improved NEVPT2 
  Axel Koslowski         : Symmetry handling                             
  Simone Kossmann        : meta-GGA functionals, TD-DFT gradient, OOMP2, (MP2 Hessian; deprecated post 5.0) 
  Lucas Lang             : DCDCAS                                        
  Marvin Lechner         : AUTO-CI (C++ implementation), FIC-MRCC        
  Spencer Leger          : CASSCF response                               
  Dagmar Lenk            : GEPOL surface, SMD, ORCA-2-JSON               
  Dimitrios Liakos       : Extrapolation schemes; Compound Job, initial MDCI parallelization 
  Dimitrios Manganas     : Further ROCIS development; embedding schemes. LFT, Crystal Embedding 
  Dimitrios Pantazis     : SARC Basis sets                               
  Anastasios Papadopoulos: AUTO-CI, single reference methods and gradients 
  Taras Petrenko         : pre 6.0 DFT Hessian and TD-DFT gradient, (ASA, deprecated), ECA, 1-Electron XAS/XES, NRVS 
  Peter Pinski           : DLPNO-MP2, DLPNO-MP2 Gradient                 
  Christoph Reimann      : Effective Core Potentials                     
  Marius Retegan         : Local ZFS, SOC                                
  Christoph Riplinger    : Optimizer, TS searches, QM/MM, DLPNO-CCSD(T), (RO)-DLPNO pert. Triples 
  Michael Roemelt        : Original ROCIS implementation                 
  Masaaki Saitow         : Open-shell DLPNO-CCSD energy and density      
  Barbara Sandhoefer     : DKH picture change effects                    
  Kantharuban Sivalingam : CASSCF convergence/infrastructure, NEVPT2 and variants, FIC-MRCI 
  Bernardo de Souza      : ESD, SOC TD-DFT                               
  Georgi L. Stoychev     : AutoAux, RI-MP2 NMR, DLPNO-MP2 response, X2C  
  Van Anh Tran           : RI-MP2 g-tensors                              
  Willem Van den Heuvel  : Paramagnetic NMR                              
  Zikuan Wang            : NOTCH, Electric field optimization            
  Frank Wennmohs         : Technical directorship and infrastructure     
  Hang Xu                : AUTO-CI-Response properties                   
                                                                         
[FACCTs GmbH]                                                            
  Markus Bursch, Miquel Garcia-Rates, Christoph Riplinger, Bernardo de Souza, Georgi L. Stoychev 
                                                                 
  APM, Basis sets (HGBS, AHGBS, def-TZVP (Ac-Lr), def2-XVPD (La-Lu)), CI-OPT, improved COSX, DLPNO-Multilevel,           
  DOCKER, DRACO, updates on ESD, GOAT, IRC, LR-CPCM, MBIS, meta-GGA TD-DFT gradient, ML-optimized integration grids, 
  MM, NACMEs, nearIR, NEB, NEB-TS, NL-DFT gradient (VV10), 2- and 3-layer-ONIOM, interface openCOSMO-RS, QMMM,   
  Crystal-QMMM, SF, symmetry and pop. for TD-DFT, r2SCAN hybrids, SOLVATOR                                   
                                                                         
[Other institutions]                                                     
  V. Asgeirsson          : NEB                                           
  Christoph Bannwarth    : sTDA-DFT, sTD-DFT, PBEh-3c, B97-3c, D3        
  Sebastian Ehlert       : rSCAN, r2SCAN, r2SCAN-3c, D4, dhf basis sets  
  Marvin Friede          : D4 for Fr, Ra, Ac-Lr                          
  Lars Goerigk           : TD-DFT with DH, B97 family of functionals     
  Stefan Grimme          : VdW corrections, initial TS optimization, DFT functionals, gCP, sTDA/sTD-DF 
  Waldemar Hujo          : DFT-NL                                        
  H. Jonsson             : NEB                                           
  Holger Kruse           : gCP                                           
  Marcel Mueller         : wB97X-3c, vDZP basis set                      
  Hagen Neugebauer       : wr2SCAN                                       
  Tobias Risthaus        : range-separated hybrid DFT                    
  Lukas Wittmann         : regularized MP2, r2SCAN double-hybrids, wr2SCAN        
                                                                         
We gratefully acknowledge several colleagues who have allowed us to      
interface, adapt or use parts of their codes:                            
  Ed Valeev, F. Pavosevic, A. Kumar             : LibInt (2-el integral package), F12 methods 
  Garnet Chan, S. Sharma, J. Yang, R. Olivares  : DMRG                   
  Ulf Ekstrom                                   : XCFun DFT Library      
  Mihaly Kallay                                 : mrcc  (arbitrary order and MRCC methods)
  Frank Weinhold                                : gennbo (NPA and NBO analysis)           
  Simon Mueller                                 : openCOSMO-RS                            
  Christopher J. Cramer and Donald G. Truhlar   : smd solvation model                     
  S Lehtola, MJT Oliveira, MAL Marques          : LibXC Library                           
  Liviu Ungur et al                             : ANISO software                          


 Your calculation uses the libint2 library for the computation of 2-el integrals
 For citations please refer to: http://libint.valeyev.net

 Your ORCA version has been built with support for libXC version: 6.2.2
 For citations please refer to: https://libxc.gitlab.io

 This ORCA versions uses:
   CBLAS   interface :  Fast vector & matrix operations
   LAPACKE interface :  Fast linear algebra routines
   SCALAPACK package :  Parallel linear algebra routines
   Shared memory     :  Shared parallel matrices
   BLAS/LAPACK       :  OpenBLAS 0.3.27  USE64BITINT DYNAMIC_ARCH NO_AFFINITY Haswell SINGLE_THREADED
        Core in use  :  Haswell
   Copyright (c) 2011-2014, The OpenBLAS Project


NOTE: MaxCore=8000 MB was set to SCF,MP2,MDCI,CIPSI,MRCI and CIS
      => If you want to overwrite this, your respective input block should be placed after the MaxCore statement


***************************************
The coordinates will be read from file: fragment.xyz
***************************************


Your calculation utilizes the atom-pairwise dispersion correction
based on EEQ partial charges (D4)


================================================================================

cite the ECPs for C  [vDZP-ECP], O  [vDZP-ECP] as follows:
   B-Ne (ecp-2-mwb), Al-Ar (ecp-10-mwb), Ga-Kr (ecp-28-mwb), Y-Cd (ecp-28-mwb), In-Xe (ecp-46-mwb):
     A. Bergner, M. Dolg, W. Küchle, H. Stoll, and H. Preuß, Mol. Phys. 80, 1431 (1993)., T. Leininger, A. Berning, A. Nicklass, H. Stoll, H.-J. Werner, and H.-J.Flad, Chem. Phys. 217, 19 (1997).
   Na-Mg, K-Ca, Rb-Sr, Cs-Ba (CRENBL):
     L. Fernandez Pacios and P. A. Christiansen, J. Chem. Phys. 82, 2664 (1985)., M. M. Hurley, L. F. Pacios, P. A. Christiansen, R. B. Ross, and W. C. Ermler, J. Chem. Phys. 84, 6840 (1986)., L. A. LaJohn, P. A. Christiansen, R. B. Ross, T. Atashroo, and W. C. Ermler, J. Chem. Phys. 87, 2812 (1987)., R. B. Ross, J. M. Powers, T. Atashroo, W. C. Ermler, L. A. LaJohn, and P. A. Christiansen, J. Chem. Phys. 93, 6654 (1990). 
   Sc-Zn (ecp-10-mdf):
     M. Dolg, U. Wedig, H. Stoll, and H. Preuss, J. Chem. Phys. 86, 866 (1986). 
   Y-Cd (ecp-28-mwb), Hf-Hg (ecp-60-mwb):
     D. Andrae, U. Häußermann, M. Dolg, H. Stoll, and H. Preuß, Theor. Chim. Acta 77, 123 (1990). 
   La (ecp-46-mwb):
     M. Dolg, H. Stoll, and H. Preuss, J. Chem. Phys. 90, 1730 (1989)., M. Dolg, H. Stoll, and H. Preuss, Theor. Chim. Acta 85, 441 (1993).
   Ce-Lu (SBKJC-ecp):
     T. R. Cundari and W. J. Stevens, J. Chem. Phys. 98, 5555 (1993).
   Tl-Rn (ecp-78-mwb):
     W. Küchle, M. Dolg, H. Stoll, and H. Preuss, Mol. Phys. 74, 1245 (1991).

ECP parameters for C  [vDZP-ECP], O  [vDZP-ECP] have been obtained from:
MM, AH, SG, J. Chem. Phys. 158, 014103 (2023), 10.1063/5.0133026

----- Orbital basis set information -----
Your calculation utilizes the basis: vDZP
   Marcel Mueller, Andreas Hansen, Stefan Grimme 
   J. Chem. Phys. 158, 014103 (2023). DOI: 10.1063/5.0133026

----- AuxJ basis set information -----
Your calculation utilizes the auxiliary basis: def2/J
   F. Weigend, Phys. Chem. Chem. Phys. 8, 1057 (2006).

================================================================================
                                        WARNINGS
                       Please study these warnings very carefully!
================================================================================

WARNING: Frozen-Core approximation turned on, but there are no core electrons.
  ===> : Turning off frozen-core approximation

WARNING: Old DensityContainer found on disk!
         Will remove this file - 
         If you want to keep old densities, please start your calculation with a different basename. 


WARNING: your system is open-shell and RHF/RKS was chosen
  ===> : WILL SWITCH to UHF/UKS


================================================================================
                                       INPUT FILE
================================================================================
NAME = orca.inp
|  1>  ! DEFGRID2 
|  2>  ! wB97X-3c
|  3>  ! SP
|  4>  %pal
|  5> nprocs 1
|  6>  end
|  7>  %maxcore 8000
|  8>  *xyzfile            0             2  fragment.xyz
|  9> 
| 10>                          ****END OF INPUT****
================================================================================

                       ****************************
                       * Single Point Calculation *
                       ****************************

---------------------------------
CARTESIAN COORDINATES (ANGSTROEM)
---------------------------------
  C     -0.152360   -1.802837   -0.470953
  C      0.585283   -0.921891    0.450473
  C      0.039426    1.288479   -0.143979
  O      0.945978    0.317708   -0.167062
  O     -1.047667    1.220672    0.347098
  H     -0.444260   -1.457208   -1.450203
  H     -0.454062   -2.784484   -0.138133
  H      1.534085   -1.365926    0.756748
  H      0.005834   -0.713313    1.353106
  H      0.439804    2.175877   -0.645125

----------------------------
CARTESIAN COORDINATES (A.U.)
----------------------------
  NO LB      ZA    FRAG     MASS         X           Y           Z
   0 C     4.0000*   0    12.011   -0.287919   -3.406868   -0.889973
   1 C     4.0000*   0    12.011    1.106025   -1.742122    0.851270
   2 C     4.0000*   0    12.011    0.074505    2.434873   -0.272080
   3 O     6.0000*   0    15.999    1.787639    0.600381   -0.315702
   4 O     6.0000*   0    15.999   -1.979803    2.306736    0.655920
   5 H     1.0000    0     1.008   -0.839529   -2.753725   -2.740486
   6 H     1.0000    0     1.008   -0.858053   -5.261911   -0.261034
   7 H     1.0000    0     1.008    2.899000   -2.581227    1.430046
   8 H     1.0000    0     1.008    0.011024   -1.347967    2.557000
   9 H     1.0000    0     1.008    0.831110    4.111811   -1.219109
* core charge reduced due to ECP

--------------------------------
INTERNAL COORDINATES (ANGSTROEM)
--------------------------------
 C      0   0   0     0.000000000000     0.00000000     0.00000000
 C      1   0   0     1.472823321106     0.00000000     0.00000000
 C      2   1   0     2.353097862327   106.71590866     0.00000000
 O      3   2   1     1.328444802630    32.82329676   254.86767302
 O      3   2   1     1.194790831832    93.09094646    74.96986015
 H      1   2   3     1.078699877835   120.78501130    25.87623118
 H      1   2   3     1.079547733748   119.40528856   209.52703889
 H      2   1   3     1.091419502480   111.56809760   211.37426109
 H      2   1   3     1.092709351505   111.43089616    90.73637943
 H      3   2   1     1.094953648867   142.38082789   254.75473628

---------------------------
INTERNAL COORDINATES (A.U.)
---------------------------
 C      0   0   0     0.000000000000     0.00000000     0.00000000
 C      1   0   0     2.783232720543     0.00000000     0.00000000
 C      2   1   0     4.446710526113   106.71590866     0.00000000
 O      3   2   1     2.510396861001    32.82329676   254.86767302
 O      3   2   1     2.257827459483    93.09094646    74.96986015
 H      1   2   3     2.038447349803   120.78501130    25.87623118
 H      1   2   3     2.040049565279   119.40528856   209.52703889
 H      2   1   3     2.062483956908   111.56809760   211.37426109
 H      2   1   3     2.064921418319   111.43089616    90.73637943
 H      3   2   1     2.069162525696   142.38082789   254.75473628

---------------------
BASIS SET INFORMATION
---------------------
There are 3 groups of distinct atoms

 Group   1 Type C   : 6s6p2d contracted to 2s2p1d pattern {42/42/2}
 Group   2 Type O   : 6s6p2d contracted to 2s2p1d pattern {42/42/2}
 Group   3 Type H   : 8s2p contracted to 2s1p pattern {53/2}

Atom   0C    basis set group =>   1
Atom   1C    basis set group =>   1
Atom   2C    basis set group =>   1
Atom   3O    basis set group =>   2
Atom   4O    basis set group =>   2
Atom   5H    basis set group =>   3
Atom   6H    basis set group =>   3
Atom   7H    basis set group =>   3
Atom   8H    basis set group =>   3
Atom   9H    basis set group =>   3
---------------------------------
AUXILIARY/J BASIS SET INFORMATION
---------------------------------
There are 3 groups of distinct atoms

 Group   1 Type C   : 12s5p4d2f1g contracted to 6s4p3d1f1g pattern {711111/2111/211/2/1}
 Group   2 Type O   : 12s5p4d2f1g contracted to 6s4p3d1f1g pattern {711111/2111/211/2/1}
 Group   3 Type H   : 5s2p1d contracted to 3s1p1d pattern {311/2/1}

Atom   0C    basis set group =>   1
Atom   1C    basis set group =>   1
Atom   2C    basis set group =>   1
Atom   3O    basis set group =>   2
Atom   4O    basis set group =>   2
Atom   5H    basis set group =>   3
Atom   6H    basis set group =>   3
Atom   7H    basis set group =>   3
Atom   8H    basis set group =>   3
Atom   9H    basis set group =>   3
-------------------------
ECP PARAMETER INFORMATION
-------------------------

 Group 1, Type C  ECP vDZP-ECP (replacing 2 core electrons, lmax=3)
 Group 2, Type O  ECP vDZP-ECP (replacing 2 core electrons, lmax=3)

Atom   0C    ECP group =>   1
Atom   1C    ECP group =>   1
Atom   2C    ECP group =>   1
Atom   3O    ECP group =>   2
Atom   4O    ECP group =>   2

------------------------------------------------------------------------------
                             ORCA STARTUP CALCULATIONS
                           -- RI-GTO INTEGRALS CHOSEN --
------------------------------------------------------------------------------
------------------------------------------------------------------------------
                   ___                                                        
                  /   \      - P O W E R E D   B Y -                         
                 /     \                                                     
                 |  |  |   _    _      __       _____    __    __             
                 |  |  |  | |  | |    /  \     |  _  \  |  |  /  |          
                  \  \/   | |  | |   /    \    | | | |  |  | /  /          
                 / \  \   | |__| |  /  /\  \   | |_| |  |  |/  /          
                |  |  |   |  __  | /  /__\  \  |    /   |      \           
                |  |  |   | |  | | |   __   |  |    \   |  |\   \          
                \     /   | |  | | |  |  |  |  | |\  \  |  | \   \       
                 \___/    |_|  |_| |__|  |__|  |_| \__\ |__|  \__/        
                                                                              
                      - O R C A' S   B I G   F R I E N D -                    
                                      &                                       
                       - I N T E G R A L  F E E D E R -                       
                                                                              
 v1 FN, 2020, v2 2021, v3 2022-2024                                           
------------------------------------------------------------------------------


----------------------
SHARK INTEGRAL PACKAGE
----------------------

Number of atoms                             ...     10
Number of basis functions                   ...     90
Number of shells                            ...     40
Maximum angular momentum                    ...      2
Integral batch strategy                     ... SHARK/LIBINT Hybrid
RI-J (if used) integral strategy            ... SPLIT-RIJ (Revised 2003 algorithm where possible)
Printlevel                                  ...      1
Contraction scheme used                     ... SEGMENTED contraction
Prescreening option                         ... SCHWARTZ
   Thresh                                   ... 1.000e-10
   Tcut                                     ... 1.000e-11
   Tpresel                                  ... 1.000e-11 
Coulomb Range Separation                    ... NOT USED
Exchange Range Separation                   ... Long Range
   Mu parameter                             ... 3.000e-01
   Scaling (regular/separated)              ... 1.670e-01 8.330e-01
Multipole approximations                    ... NOT USED
Finite Nucleus Model                        ... NOT USED
CABS basis                                  ... NOT available
Auxiliary Coulomb fitting basis             ... AVAILABLE
   # of basis functions in Aux-J            ...    300
   # of shells in Aux-J                     ...    100
   Maximum angular momentum in Aux-J        ...      4
Auxiliary J/K fitting basis                 ... NOT available
Auxiliary Correlation fitting basis         ... NOT available
Auxiliary 'external' fitting basis          ... NOT available

Checking pre-screening integrals            ... done (  0.0 sec) Dimension = 40
Check shell pair data                       ... done (  0.0 sec)
Shell pair information
Shell pair cut-off parameter TPreSel        ...   1.0e-11
Total number of shell pairs                 ...       820
Shell pairs after pre-screening             ...       820
Total number of primitive shell pairs       ...      7405
Primitive shell pairs kept                  ...      6724
          la=0 lb=0:    210 shell pairs
          la=1 lb=0:    300 shell pairs
          la=1 lb=1:    120 shell pairs
          la=2 lb=0:    100 shell pairs
          la=2 lb=1:     75 shell pairs
          la=2 lb=2:     15 shell pairs

Calculating one electron integrals          ... done (  0.0 sec)
Calculating ECP integrals                   ... done (  0.1 sec)
Calculating RI/J V-Matrix + Cholesky decomp.... done (  0.0 sec)
Calculating Nuclear repulsion               ... done (  0.0 sec) ENN=     95.239967553678 Eh

Diagonalization of the overlap matrix:
Smallest eigenvalue                        ... 2.517e-03
Time for diagonalization                   ...    0.001 sec
Threshold for overlap eigenvalues          ... 1.000e-07
Number of eigenvalues below threshold      ... 0
Time for construction of square roots      ...    0.000 sec
Total time needed                          ...    0.002 sec

-------------------
DFT GRID GENERATION
-------------------

General Integration Accuracy     IntAcc      ... 4.388
Radial Grid Type                 RadialGrid  ... OptM3 with GC (2021)
Angular Grid (max. ang.)         AngularGrid ... 4 (Lebedev-302)
Angular grid pruning method      GridPruning ... 4 (adaptive)
Weight generation scheme         WeightScheme... mBecke (2022)
Basis function cutoff            BFCut       ... 1.0000e-10
Integration weight cutoff        WCut        ... 1.0000e-14
Partially contracted basis set               ... off
Rotationally invariant grid construction     ... off
Angular grids for H and He will be reduced by one unit

Total number of grid points                  ...    46650
Total number of batches                      ...      733
Average number of points per batch           ...       63
Average number of grid points per atom       ...     4665

--------------------
COSX GRID GENERATION
--------------------

GRIDX 1
-------
General Integration Accuracy     IntAcc      ... 3.816
Radial Grid Type                 RadialGrid  ... OptM3 with GC (2021)
Angular Grid (max. ang.)         AngularGrid ... 1 (Lebedev-50)
Angular grid pruning method      GridPruning ... 4 (adaptive)
Weight generation scheme         WeightScheme... mBecke (2022)
Basis function cutoff            BFCut       ... 1.0000e-10
Integration weight cutoff        WCut        ... 1.0000e-14
Partially contracted basis set               ... on
Rotationally invariant grid construction     ... off
Angular grids for H and He will be reduced by one unit

Total number of grid points                  ...     5967
Total number of batches                      ...       54
Average number of points per batch           ...      110
Average number of grid points per atom       ...      597
UseSFitting                                  ... on

GRIDX 2
-------
General Integration Accuracy     IntAcc      ... 4.020
Radial Grid Type                 RadialGrid  ... OptM3 with GC (2021)
Angular Grid (max. ang.)         AngularGrid ... 2 (Lebedev-110)
Angular grid pruning method      GridPruning ... 4 (adaptive)
Weight generation scheme         WeightScheme... mBecke (2022)
Basis function cutoff            BFCut       ... 1.0000e-10
Integration weight cutoff        WCut        ... 1.0000e-14
Partially contracted basis set               ... on
Rotationally invariant grid construction     ... off
Angular grids for H and He will be reduced by one unit

Total number of grid points                  ...    13076
Total number of batches                      ...      108
Average number of points per batch           ...      121
Average number of grid points per atom       ...     1308
UseSFitting                                  ... on

GRIDX 3
-------
General Integration Accuracy     IntAcc      ... 4.338
Radial Grid Type                 RadialGrid  ... OptM3 with GC (2021)
Angular Grid (max. ang.)         AngularGrid ... 3 (Lebedev-194)
Angular grid pruning method      GridPruning ... 4 (adaptive)
Weight generation scheme         WeightScheme... mBecke (2022)
Basis function cutoff            BFCut       ... 1.0000e-10
Integration weight cutoff        WCut        ... 1.0000e-14
Partially contracted basis set               ... on
Rotationally invariant grid construction     ... off
Angular grids for H and He will be reduced by one unit

Total number of grid points                  ...    28876
Total number of batches                      ...      230
Average number of points per batch           ...      125
Average number of grid points per atom       ...     2888
UseSFitting                                  ... on
Initializing property integral containers    ... done (  0.0 sec)

SHARK setup successfully completed in   1.1 seconds

Maximum memory used throughout the entire STARTUP-calculation: 21.6 MB
-------------------------------------------------------------------------------
                                 ORCA GUESS
                   Start orbitals & Density for SCF / CASSCF
-------------------------------------------------------------------------------

------------
SCF SETTINGS
------------
Hamiltonian:
 Density Functional     Method          .... DFT(GTOs)
 Exchange Functional    Exchange        .... WB97X-V
 Correlation Functional Correlation     .... WB97X-V
 Gradients option       PostSCFGGA      .... off
 Hybrid DFT is turned on
   Fraction HF Exchange ScalHFX         ....  0.167000
   Scaling of DF-GGA-X  ScalDFX         ....  0.000000
   Scaling of DF-GGA-C  ScalDFC         ....  1.000000
   Scaling of DF-LDA-C  ScalLDAC        ....  1.000000
   Perturbative correction              ....  0.000000
 Long-range corrected/Screened/Range-Separated Hybrid DFT is turned on
   Amount of maximum screened exact exchange              ....  0.833000
   Range separation parameter mu (erf(mu*r12)/r12)        ....  0.300000
   NL short-range parameter             ....  6.000000
   NL long-range parameter              ....  0.010000
 RI-approximation to the Coulomb term is turned on
   Number of AuxJ basis functions       .... 300
   RIJ-COSX (HFX calculated with COS-X)).... on


General Settings:
 Integral files         IntName         .... orca
 Hartree-Fock type      HFTyp           .... UHF
 Total Charge           Charge          ....    0
 Multiplicity           Mult            ....    2
 Number of Electrons    NEL             ....   29
 Basis Dimension        Dim             ....   90
 Nuclear Repulsion      ENuc            ....     95.2399675537 Eh

Convergence Acceleration:
 AO-DIIS                CNVDIIS         .... on
   Start iteration      DIISMaxIt       ....    12
   Startup error        DIISStart       ....  0.200000
   # of expansion vecs  DIISMaxEq       ....     5
   Bias factor          DIISBfac        ....   1.050
   Max. coefficient     DIISMaxC        ....  10.000
 MO-DIIS                CNVKDIIS        .... off
 Trust-Rad. Augm. Hess. CNVTRAH         .... auto
   Auto Start mean grad. ratio tolernc. ....  1.125000
   Auto Start start iteration           ....    50
   Auto Start num. interpolation iter.  ....    10
   Max. Number of Micro iterations      ....    24
   Max. Number of Macro iterations      .... Maxiter - #DIIS iter
   Number of Davidson start vectors     ....     2
   Converg. threshold    (grad. norm)   ....   5.000e-05
   Grad. Scal. Fac. for Micro threshold ....   0.100
   Minimum threshold for Micro iter.    ....   1.000e-02
   NR start threshold (gradient norm)   ....   1.000e-04
   Initial trust radius                 ....   0.400
   Minimum AH scaling param. (alpha)    ....   1.000
   Maximum AH scaling param. (alpha)    .... 1000.000
   Quad. conv. algorithm                .... NR
   White noise on init. David. guess    .... on
   Maximum white noise                  ....   0.010
   Pseudo random numbers                .... off
   Inactive MOs                         .... canonical
   Orbital update algorithm             .... Taylor
   Preconditioner                       .... Diag
   Full preconditioner red. dimension   ....   250
 SOSCF                  CNVSOSCF        .... on
   Start iteration      SOSCFMaxIt      ....   150
   Startup grad/error   SOSCFStart      ....  0.003300
   Hessian update       SOSCFHessUp     .... L-BFGS
 Level Shifting         CNVShift        .... on
   Level shift para.    LevelShift      ....    0.2500
   Turn off err/grad.   ShiftErr        ....    0.0010
 Zerner damping         CNVZerner       .... off
 Static damping         CNVDamp         .... on
   Fraction old density DampFac         ....    0.7000
   Max. Damping (<1)    DampMax         ....    0.9800
   Min. Damping (>=0)   DampMin         ....    0.0000
   Turn off err/grad.   DampErr         ....    0.1000

SCF Procedure:
 Maximum # iterations   MaxIter         ....   125
 SCF integral mode      SCFMode         .... Direct
   Integral package                     .... SHARK and LIBINT hybrid scheme
 Reset frequency        DirectResetFreq ....    20
 Integral Threshold     Thresh          ....  1.000e-10 Eh
 Primitive CutOff       TCut            ....  1.000e-11 Eh

Convergence Tolerance:
 Convergence Check Mode ConvCheckMode   .... Total+1el-Energy
 Convergence forced     ConvForced      .... 0
 Energy Change          TolE            ....  1.000e-06 Eh
 1-El. energy change                    ....  1.000e-03 Eh
 Orbital Gradient       TolG            ....  5.000e-05
 Orbital Rotation angle TolX            ....  5.000e-05
 DIIS Error             TolErr          ....  1.000e-06

------------------------------
INITIAL GUESS: MODEL POTENTIAL
------------------------------
Loading Hartree-Fock densities                     ... done
Atomic calculation to generate a density for atom 0 (C  with ECP)
  Multiplicity assumed   :    1
  Atomic configuration   : 1s2 2s2 2p2 
  Number of open shells  : 1
  Command: /home/alejandro/orca_6_0_1/orca orca_atom6.inp "" > orca_atom6.out
Returned from the atomic calculation with res=0
Atomic calculation to generate a density for atom 3 (O  with ECP)
  Multiplicity assumed   :    3
  Atomic configuration   : 1s2 2s2 2p4 
  Number of open shells  : 1
  Command: /home/alejandro/orca_6_0_1/orca orca_atom8.inp "" > orca_atom8.out
Returned from the atomic calculation with res=0
Calculating cut-offs                               ... done
Initializing the effective Hamiltonian             ... done
Setting up the integral package (SHARK)            ... done
Starting the Coulomb interaction                   ... done (   0.1 sec)
Making the grid                                    ... done (   0.1 sec)
Mapping shells                                     ... done
Starting the XC term evaluation                    ... done (   0.1 sec)
  promolecular density results
     # of electrons  =     38.995891297
     EX              =    -22.514415765
     EC              =     -1.620429358
     EX+EC           =    -24.134845123
Transforming the Hamiltonian                       ... done (   0.0 sec)
Diagonalizing the Hamiltonian                      ... done (   0.0 sec)
Back transforming the eigenvectors                 ... done (   0.0 sec)
Now organizing SCF variables                       ... done
                      ------------------
                      INITIAL GUESS DONE (   1.1 sec)
                      ------------------
             **** ENERGY FILE WAS UPDATED (orca.en.tmp) ****
Finished Guess after   1.2 sec
Maximum memory used throughout the entire GUESS-calculation: 12.2 MB

-------------------------------------------------------------------------------------------
                                      ORCA LEAN-SCF
                              memory conserving SCF solver
-------------------------------------------------------------------------------------------

----------------------------------------D-I-I-S--------------------------------------------
Iteration    Energy (Eh)           Delta-E    RMSDP     MaxDP     DIISErr   Damp  Time(sec)
-------------------------------------------------------------------------------------------
               ***  Starting incremental Fock matrix formation  ***
    1    -52.0055478077979103     0.00e+00  2.17e-03  4.26e-02  9.93e-02  0.700   6.4
    2    -52.0614261498389794    -5.59e-02  1.50e-03  2.74e-02  5.02e-02  0.700   3.2
                               ***Turning on AO-DIIS***
    3    -52.0884361316788898    -2.70e-02  7.82e-04  9.37e-03  2.41e-02  0.700   3.2
    4    -52.1049438654863764    -1.65e-02  1.67e-03  1.90e-02  1.56e-02  0.000   3.1
    5    -52.1415822901144566    -3.66e-02  2.38e-04  6.45e-03  4.02e-03  0.000   3.2
                              *** Initializing SOSCF ***
---------------------------------------S-O-S-C-F--------------------------------------
Iteration    Energy (Eh)           Delta-E    RMSDP     MaxDP     MaxGrad    Time(sec)
--------------------------------------------------------------------------------------
    6    -52.1418583039497037    -2.76e-04  1.22e-04  2.70e-03  2.30e-03     3.0
               *** Restarting incremental Fock matrix formation ***
    7    -52.1419256861523479    -6.74e-05  7.97e-05  1.69e-03  1.71e-03     6.4
    8    -52.1419528472308969    -2.72e-05  8.52e-05  2.06e-03  7.29e-04     5.4
    9    -52.1419614416176671    -8.59e-06  2.70e-05  4.66e-04  3.09e-04     5.4
   10    -52.1419638444182567    -2.40e-06  5.44e-06  1.20e-04  4.26e-05     5.1
   11    -52.1419638280123650     1.64e-08  2.34e-06  5.27e-05  3.63e-05     4.5
                 **** Energy Check signals convergence ****

               *****************************************************
               *                     SUCCESS                       *
               *           SCF CONVERGED AFTER  11 CYCLES          *
               *****************************************************

Recomputing exchange energy using gridx3       ... done (   11.839 sec)
Old exchange energy                            :     -5.876170297 Eh
New exchange energy                            :     -5.876159011 Eh
Exchange energy change after final integration :      0.000011286 Eh
Total energy after final integration           :    -52.141952542 Eh
             **** ENERGY FILE WAS UPDATED (orca.en.tmp) ****

----------------
TOTAL SCF ENERGY
----------------

Total Energy       :        -52.14195254157482 Eh           -1418.85466 eV

Components:
Nuclear Repulsion  :         95.23996755367756 Eh            2591.61127 eV
Electronic Energy  :       -147.38193138168992 Eh           -4010.46624 eV
One Electron Energy:       -270.26461280977043 Eh           -7354.27400 eV
Two Electron Energy:        122.88268142808050 Eh            3343.80776 eV

Virial components:
Potential Energy   :        -92.88072340864284 Eh           -2527.41298 eV
Kinetic Energy     :         40.73877086706801 Eh            1108.55831 eV
Virial Ratio       :          2.27990981150894

DFT components:
N(Alpha)           :       15.000024049091 electrons
N(Beta)            :       14.000017035281 electrons
N(Total)           :       29.000041084372 electrons
E(X)               :       -7.128631299289 Eh       
E(C)               :       -1.113903007775 Eh       
E(XC)              :       -8.242534307063 Eh       

---------------
SCF CONVERGENCE
---------------

  Last Energy change         ...   -1.6406e-08  Tolerance :   1.0000e-06
  Last MAX-Density change    ...    5.2656e-05  Tolerance :   1.0000e-05
  Last RMS-Density change    ...    2.3420e-06  Tolerance :   1.0000e-06
  Last DIIS Error            ...    2.3019e-03  Tolerance :   1.0000e-06
  Last Orbital Gradient      ...    3.6289e-05  Tolerance :   5.0000e-05
  Last Orbital Rotation      ...    4.0121e-05  Tolerance :   5.0000e-05


----------------------
UHF SPIN CONTAMINATION
----------------------

Warning: in a DFT calculation there is little theoretical justification to 
         calculate <S**2> as in Hartree-Fock theory. We will do it anyways
         but you should keep in mind that the values have only limited relevance

Expectation value of <S**2>     :     0.753566
Ideal value S*(S+1) for S=0.5   :     0.750000
Deviation                       :     0.003566

----------------
ORBITAL ENERGIES
----------------
                 SPIN UP ORBITALS
  NO   OCC          E(Eh)            E(eV) 
   0   1.0000      -1.253171       -34.1005 
   1   1.0000      -1.158796       -31.5324 
   2   1.0000      -0.929189       -25.2845 
   3   1.0000      -0.807378       -21.9699 
   4   1.0000      -0.712982       -19.4012 
   5   1.0000      -0.669956       -18.2304 
   6   1.0000      -0.616556       -16.7773 
   7   1.0000      -0.595789       -16.2123 
   8   1.0000      -0.565263       -15.3816 
   9   1.0000      -0.535691       -14.5769 
  10   1.0000      -0.524098       -14.2614 
  11   1.0000      -0.484676       -13.1887 
  12   1.0000      -0.432550       -11.7703 
  13   1.0000      -0.406499       -11.0614 
  14   1.0000      -0.324074        -8.8185 
  15   0.0000       0.081963         2.2303 
  16   0.0000       0.096201         2.6178 
  17   0.0000       0.105273         2.8646 
  18   0.0000       0.112626         3.0647 
  19   0.0000       0.134749         3.6667 
  20   0.0000       0.144422         3.9299 
  21   0.0000       0.187135         5.0922 
  22   0.0000       0.258081         7.0227 
  23   0.0000       0.301166         8.1951 
  24   0.0000       0.355224         9.6661 
  25   0.0000       0.374998        10.2042 

                 SPIN DOWN ORBITALS
  NO   OCC          E(Eh)            E(eV) 
   0   1.0000      -1.253068       -34.0977 
   1   1.0000      -1.158588       -31.5268 
   2   1.0000      -0.916056       -24.9272 
   3   1.0000      -0.786135       -21.3918 
   4   1.0000      -0.704116       -19.1600 
   5   1.0000      -0.667058       -18.1516 
   6   1.0000      -0.613314       -16.6891 
   7   1.0000      -0.592956       -16.1352 
   8   1.0000      -0.557507       -15.1705 
   9   1.0000      -0.525860       -14.3094 
  10   1.0000      -0.517031       -14.0691 
  11   1.0000      -0.479173       -13.0389 
  12   1.0000      -0.430101       -11.7036 
  13   1.0000      -0.406231       -11.0541 
  14   0.0000       0.017185         0.4676 
  15   0.0000       0.082609         2.2479 
  16   0.0000       0.097774         2.6606 
  17   0.0000       0.105822         2.8796 
  18   0.0000       0.117139         3.1875 
  19   0.0000       0.136501         3.7144 
  20   0.0000       0.146499         3.9864 
  21   0.0000       0.187076         5.0906 
  22   0.0000       0.258924         7.0457 
  23   0.0000       0.304502         8.2859 
  24   0.0000       0.357315         9.7230 
*Only the first 10 virtual orbitals were printed.

                    ********************************
                    * MULLIKEN POPULATION ANALYSIS *
                    ********************************

--------------------------------------------
MULLIKEN ATOMIC CHARGES AND SPIN POPULATIONS
--------------------------------------------
   0 C :   -0.065335    1.025103
   1 C :    0.093823   -0.063833
   2 C :    0.302130   -0.001220
   3 O :   -0.259797    0.002437
   4 O :   -0.319961    0.001341
   5 H :    0.049700   -0.018821
   6 H :    0.045442   -0.017878
   7 H :    0.064757    0.035451
   8 H :    0.065912    0.037350
   9 H :    0.023327    0.000072
Sum of atomic charges         :   -0.0000000
Sum of atomic spin populations:    1.0000000

-----------------------------------------------------
MULLIKEN REDUCED ORBITAL CHARGES AND SPIN POPULATIONS
-----------------------------------------------------
CHARGE
  0 C s       :     1.074877  s :     1.074877
      pz      :     0.990919  p :     2.939736
      px      :     0.964866
      py      :     0.983950
      dz2     :     0.012682  d :     0.050722
      dxz     :     0.007945
      dyz     :     0.014232
      dx2y2   :     0.009209
      dxy     :     0.006655

  1 C s       :     0.996878  s :     0.996878
      pz      :     0.969380  p :     2.767850
      px      :     1.044480
      py      :     0.753991
      dz2     :     0.025800  d :     0.141448
      dxz     :     0.024841
      dyz     :     0.031159
      dx2y2   :     0.028658
      dxy     :     0.030990

  2 C s       :     1.082576  s :     1.082576
      pz      :     0.746448  p :     2.363282
      px      :     0.796129
      py      :     0.820704
      dz2     :     0.023103  d :     0.252012
      dxz     :     0.046834
      dyz     :     0.034113
      dx2y2   :     0.057128
      dxy     :     0.090834

  3 O s       :     1.685284  s :     1.685284
      pz      :     1.699219  p :     4.533120
      px      :     1.590574
      py      :     1.243327
      dz2     :     0.005006  d :     0.041393
      dxz     :     0.005711
      dyz     :     0.008215
      dx2y2   :     0.008403
      dxy     :     0.014058

  4 O s       :     1.765622  s :     1.765622
      pz      :     1.421452  p :     4.516275
      px      :     1.333804
      py      :     1.761019
      dz2     :     0.006809  d :     0.038064
      dxz     :     0.012075
      dyz     :     0.001600
      dx2y2   :     0.009675
      dxy     :     0.007905

  5 H s       :     0.898589  s :     0.898589
      pz      :     0.024044  p :     0.051711
      px      :     0.015519
      py      :     0.012148

  6 H s       :     0.902558  s :     0.902558
      pz      :     0.012263  p :     0.052000
      px      :     0.015790
      py      :     0.023948

  7 H s       :     0.893621  s :     0.893621
      pz      :     0.010881  p :     0.041622
      px      :     0.021738
      py      :     0.009003

  8 H s       :     0.889068  s :     0.889068
      pz      :     0.019822  p :     0.045020
      px      :     0.016110
      py      :     0.009087

  9 H s       :     0.936066  s :     0.936066
      pz      :     0.012141  p :     0.040606
      px      :     0.009332
      py      :     0.019134


SPIN
  0 C s       :     0.064199  s :     0.064199
      pz      :     0.141654  p :     0.964914
      px      :     0.678216
      py      :     0.145044
      dz2     :    -0.000421  d :    -0.004010
      dxz     :    -0.000805
      dyz     :    -0.000775
      dx2y2   :    -0.001182
      dxy     :    -0.000826

  1 C s       :    -0.018505  s :    -0.018505
      pz      :    -0.023681  p :    -0.069792
      px      :    -0.031387
      py      :    -0.014724
      dz2     :     0.005297  d :     0.024463
      dxz     :     0.006580
      dyz     :     0.004621
      dx2y2   :     0.007141
      dxy     :     0.000825

  2 C s       :    -0.000148  s :    -0.000148
      pz      :    -0.000673  p :    -0.001233
      px      :    -0.000108
      py      :    -0.000452
      dz2     :    -0.000022  d :     0.000161
      dxz     :    -0.000013
      dyz     :     0.000173
      dx2y2   :     0.000036
      dxy     :    -0.000013

  3 O s       :     0.000545  s :     0.000545
      pz      :     0.000306  p :     0.001943
      px      :     0.000611
      py      :     0.001026
      dz2     :     0.000044  d :    -0.000050
      dxz     :     0.000078
      dyz     :    -0.000067
      dx2y2   :    -0.000045
      dxy     :    -0.000061

  4 O s       :     0.000198  s :     0.000198
      pz      :     0.000560  p :     0.001105
      px      :     0.000133
      py      :     0.000411
      dz2     :     0.000019  d :     0.000037
      dxz     :    -0.000004
      dyz     :     0.000020
      dx2y2   :    -0.000010
      dxy     :     0.000013

  5 H s       :    -0.034869  s :    -0.034869
      pz      :     0.002996  p :     0.016048
      px      :     0.011126
      py      :     0.001925

  6 H s       :    -0.033556  s :    -0.033556
      pz      :     0.001870  p :     0.015678
      px      :     0.010830
      py      :     0.002977

  7 H s       :     0.035976  s :     0.035976
      pz      :    -0.000490  p :    -0.000525
      px      :    -0.000259
      py      :     0.000223

  8 H s       :     0.037760  s :     0.037760
      pz      :    -0.000579  p :    -0.000410
      px      :    -0.000037
      py      :     0.000206

  9 H s       :     0.000080  s :     0.000080
      pz      :    -0.000004  p :    -0.000007
      px      :    -0.000002
      py      :    -0.000002



                     *******************************
                     * LOEWDIN POPULATION ANALYSIS *
                     *******************************

-------------------------------------------
LOEWDIN ATOMIC CHARGES AND SPIN POPULATIONS
-------------------------------------------
   0 C :    0.002888    0.813888
   1 C :   -0.052947    0.044321
   2 C :   -0.026790   -0.000427
   3 O :   -0.012028   -0.001060
   4 O :   -0.132738    0.002110
   5 H :    0.023607    0.041095
   6 H :    0.024450    0.039739
   7 H :    0.062720    0.029351
   8 H :    0.056699    0.030958
   9 H :    0.054139    0.000026

----------------------------------------------------
LOEWDIN REDUCED ORBITAL CHARGES AND SPIN POPULATIONS
----------------------------------------------------
CHARGE
  0 C s       :     0.865742  s :     0.865742
      pz      :     1.027472  p :     2.953354
      px      :     0.897044
      py      :     1.028838
      dz2     :     0.047929  d :     0.178016
      dxz     :     0.027679
      dyz     :     0.044827
      dx2y2   :     0.033542
      dxy     :     0.024038

  1 C s       :     0.759954  s :     0.759954
      pz      :     0.997842  p :     2.871532
      px      :     1.062188
      py      :     0.811503
      dz2     :     0.075749  d :     0.421460
      dxz     :     0.078660
      dyz     :     0.091833
      dx2y2   :     0.080058
      dxy     :     0.095160

  2 C s       :     0.775226  s :     0.775226
      pz      :     0.765424  p :     2.561324
      px      :     0.899807
      py      :     0.896093
      dz2     :     0.064554  d :     0.690240
      dxz     :     0.132133
      dyz     :     0.086065
      dx2y2   :     0.166078
      dxy     :     0.241410

  3 O s       :     1.385181  s :     1.385181
      pz      :     1.608620  p :     4.517743
      px      :     1.593099
      py      :     1.316024
      dz2     :     0.014132  d :     0.109104
      dxz     :     0.009946
      dyz     :     0.021900
      dx2y2   :     0.026544
      dxy     :     0.036582

  4 O s       :     1.521581  s :     1.521581
      pz      :     1.403931  p :     4.535596
      px      :     1.474140
      py      :     1.657525
      dz2     :     0.010360  d :     0.075561
      dxz     :     0.022821
      dyz     :     0.003924
      dx2y2   :     0.020698
      dxy     :     0.017757

  5 H s       :     0.811022  s :     0.811022
      pz      :     0.069285  p :     0.165372
      px      :     0.053679
      py      :     0.042408

  6 H s       :     0.810822  s :     0.810822
      pz      :     0.043233  p :     0.164728
      px      :     0.053460
      py      :     0.068035

  7 H s       :     0.794031  s :     0.794031
      pz      :     0.043172  p :     0.143249
      px      :     0.065062
      py      :     0.035016

  8 H s       :     0.793239  s :     0.793239
      pz      :     0.063375  p :     0.150061
      px      :     0.053355
      py      :     0.033332

  9 H s       :     0.820899  s :     0.820899
      pz      :     0.035860  p :     0.124963
      px      :     0.031161
      py      :     0.057942


SPIN
  0 C s       :     0.021994  s :     0.021994
      pz      :     0.113385  p :     0.797110
      px      :     0.569156
      py      :     0.114568
      dz2     :    -0.001036  d :    -0.005216
      dxz     :    -0.000648
      dyz     :    -0.001302
      dx2y2   :    -0.001214
      dxy     :    -0.001016

  1 C s       :    -0.004026  s :    -0.004026
      pz      :    -0.009623  p :    -0.019969
      px      :    -0.005817
      py      :    -0.004529
      dz2     :     0.014895  d :     0.068316
      dxz     :     0.018712
      dyz     :     0.013467
      dx2y2   :     0.018724
      dxy     :     0.002517

  2 C s       :    -0.000075  s :    -0.000075
      pz      :    -0.000433  p :    -0.000706
      px      :     0.000015
      py      :    -0.000287
      dz2     :    -0.000058  d :     0.000354
      dxz     :    -0.000047
      dyz     :     0.000439
      dx2y2   :     0.000056
      dxy     :    -0.000037

  3 O s       :    -0.000195  s :    -0.000195
      pz      :    -0.000106  p :    -0.000506
      px      :    -0.000366
      py      :    -0.000034
      dz2     :    -0.000015  d :    -0.000359
      dxz     :     0.000133
      dyz     :    -0.000155
      dx2y2   :    -0.000173
      dxy     :    -0.000150

  4 O s       :     0.000091  s :     0.000091
      pz      :     0.001058  p :     0.001955
      px      :     0.000210
      py      :     0.000686
      dz2     :     0.000018  d :     0.000064
      dxz     :    -0.000013
      dyz     :     0.000069
      dx2y2   :    -0.000025
      dxy     :     0.000014

  5 H s       :    -0.018430  s :    -0.018430
      pz      :     0.011169  p :     0.059525
      px      :     0.040412
      py      :     0.007943

  6 H s       :    -0.018018  s :    -0.018018
      pz      :     0.007603  p :     0.057757
      px      :     0.039208
      py      :     0.010946

  7 H s       :     0.028589  s :     0.028589
      pz      :    -0.000822  p :     0.000762
      px      :     0.001669
      py      :    -0.000085

  8 H s       :     0.029739  s :     0.029739
      pz      :     0.000634  p :     0.001220
      px      :    -0.000635
      py      :     0.001221

  9 H s       :     0.000050  s :     0.000050
      pz      :     0.000002  p :    -0.000025
      px      :    -0.000014
      py      :    -0.000013



                      *****************************
                      * MAYER POPULATION ANALYSIS *
                      *****************************

  NA   - Mulliken gross atomic population
  ZA   - Total nuclear charge
  QA   - Mulliken gross atomic charge
  VA   - Mayer's total valence
  BVA  - Mayer's bonded valence
  FA   - Mayer's free valence

  ATOM       NA         ZA         QA         VA         BVA        FA
  0 C      4.0653     4.0000    -0.0653     3.9512     3.1090     0.8421
  1 C      3.9062     4.0000     0.0938     3.9719     3.9682     0.0037
  2 C      3.6979     4.0000     0.3021     4.1305     4.1305     0.0000
  3 O      6.2598     6.0000    -0.2598     2.0751     2.0751     0.0000
  4 O      6.3200     6.0000    -0.3200     2.0587     2.0587     0.0000
  5 H      0.9503     1.0000     0.0497     1.0507     1.0491     0.0016
  6 H      0.9546     1.0000     0.0454     1.0494     1.0479     0.0015
  7 H      0.9352     1.0000     0.0648     1.0280     1.0264     0.0015
  8 H      0.9341     1.0000     0.0659     1.0310     1.0293     0.0017
  9 H      0.9767     1.0000     0.0233     1.0462     1.0462     0.0000

  Mayer bond orders larger than 0.100000
B(  0-C ,  1-C ) :   1.0518 B(  0-C ,  5-H ) :   1.0157 B(  0-C ,  6-H ) :   1.0176 
B(  1-C ,  3-O ) :   0.8764 B(  1-C ,  7-H ) :   0.9899 B(  1-C ,  8-H ) :   0.9774 
B(  2-C ,  3-O ) :   1.1571 B(  2-C ,  4-O ) :   1.9320 B(  2-C ,  9-H ) :   1.0300 


-------
TIMINGS
-------

Total SCF time: 0 days 0 hours 1 min 0 sec 

Total time                  ....      60.934 sec
Sum of individual times     ....      60.920 sec  (100.0%)

SCF preparation             ....       0.087 sec  (  0.1%)
Fock matrix formation       ....      60.765 sec  ( 99.7%)
  Startup                   ....       0.002 sec  (  0.0% of F)
  Split-RI-J                ....       2.256 sec  (  3.7% of F)
  Chain of spheres X        ....      51.959 sec  ( 85.5% of F)
  XC integration            ....       6.532 sec  ( 10.7% of F)
    Basis function eval.    ....       1.784 sec  ( 27.3% of XC)
    Density eval.           ....       1.436 sec  ( 22.0% of XC)
    XC-Functional eval.     ....       1.015 sec  ( 15.5% of XC)
    XC-Potential eval.      ....       2.113 sec  ( 32.4% of XC)
Diagonalization             ....       0.000 sec  (  0.0%)
Density matrix formation    ....       0.008 sec  (  0.0%)
Total Energy calculation    ....       0.002 sec  (  0.0%)
Population analysis         ....       0.004 sec  (  0.0%)
Orbital Transformation      ....       0.008 sec  (  0.0%)
Orbital Orthonormalization  ....       0.000 sec  (  0.0%)
DIIS solution               ....       0.031 sec  (  0.1%)
SOSCF solution              ....       0.016 sec  (  0.0%)
Finished LeanSCF after  60.9 sec

Maximum memory used throughout the entire LEANSCF-calculation: 14.3 MB


-------------------------------------------------------------------------------
                          DFT DISPERSION CORRECTION                            
                                                                               
                                DFTD4 V3.4.0                                   
-------------------------------------------------------------------------------
The wB97X-3c composite method is recognized
Using three-body term ABC
Active option DFTDOPT                   ...         5   

-------------------------   ----------------
Dispersion correction           -0.007347183
-------------------------   ----------------


-------------------------   --------------------
FINAL SINGLE POINT ENERGY       -52.149299724446
-------------------------   --------------------


------------------------------------------------------------------------------
                              ORCA PROPERTY CALCULATIONS
------------------------------------------------------------------------------

GBWName                                 ... orca.gbw
Number of atoms                         ...     10
Number of basis functions               ...     90
Max core memory                         ...   8000 MB

Electric properties:
Dipole moment                           ... YES
Quadrupole moment                       ...  NO
Static polarizability (Dipole/Dipole)   ...  NO
Static polarizability (Dipole/Quad.)    ...  NO
Static polarizability (Quad./Quad.)     ...  NO
Static polarizability (Velocity)        ...  NO

Atomic electric properties:
Dipole moment                           ...  NO
Quadrupole moment                       ...  NO
Static polarizability                   ...  NO

Choice of electric origin               ... Center of mass
Position of electric origin             ...     0.132838     0.082331     0.020184

General magnetic properties:
Magnetizability                         ...  NO

EPR properties:
g-Tensor (aka g-matrix)                 ...  NO
Zero-Field splitting spin-orbit         ...  NO
Zero-field splitting spin-spin          ...  NO
Hyperfine couplings                     ...  NO (   0 nuclei)
Quadrupole couplings                    ...  NO (   0 nuclei)
Contact density                         ...  NO (   0 nuclei)

NMR properties:
Chemical shifts                         ...  NO (   0 nuclei)
Spin-rotation constants                 ...  NO (   0 nuclei)
Spin-spin couplings                     ...  NO (   0 nuclei,    0 pairs)

Choice of magnetic origin               ... GIAO
Position of magnetic origin             ...     0.000000     0.000000     0.000000

Properties with geometric perturbations:
SCF Hessian                             ...  NO
IR spectrum                             ...  NO
VCD spectrum                            ...  NO
X-ray spectroscopy properties:
SCF XES/XAS/RIXS spectra                ...  NO


-------------
DIPOLE MOMENT
-------------

Method             : SCF
Type of density    : Electron Density
Multiplicity       :   2
Irrep              :   0
Energy             :   -52.1419525415748240 Eh
Relativity type    : 
Basis              : AO
                                X                 Y                 Z
Electronic contribution:      0.018195149       3.199541004      -0.054635422
Nuclear contribution   :      0.608705381      -3.634389756      -0.020748864
                        -----------------------------------------
Total Dipole Moment    :      0.626900529      -0.434848752      -0.075384285
                        -----------------------------------------
Magnitude (a.u.)       :      0.766668443
Magnitude (Debye)      :      1.948716315



--------------------
Rotational spectrum 
--------------------
 
Rotational constants in cm-1:             0.359802             0.131344             0.111457 
Rotational constants in MHz :         10786.581362          3937.605687          3341.390561 

Dipole components along the rotational axes: 
x,y,z [a.u.] :     0.569111     0.513647     0.007702 
x,y,z [Debye]:     1.446566     1.305588     0.019577 

 

Dipole moment calculation done in   0.0 sec 

Maximum memory used throughout the entire PROP-calculation: 7.8 MB

--------------------------------
SUGGESTED CITATIONS FOR THIS RUN
--------------------------------

Below you find a list of papers that are relevant to this ORCA run
We neither can nor want to force you to cite these papers, but we appreciate if you do
You receive ORCA, which is the product of decades of hard work by many enthusiastic individuals, for free
The only thing we kindly ask in return is that you cite our papers,
We deeply appreciate it, if you show your appreciation for ORCA by not just citing the generic ORCA reference.

Please note that relegating all ORCA citations to the supporting information does *not* help us.
SI sections are not indexed - citations you put there will not count into any citation statistics
But we need these citations in order to attract the funding resources that allow us to do what we are doing

Therefore, if you are a happy ORCA user, please consider citing a few of the papers listed below in the main body of your paper

In addition to the list printed below, the program has created the file orca.bibtex that contains the list in bibtex format
You can import this file easily into all common literature databanks and citation aid programs


List of essential papers. We consider these as the minimum necessary citations

  1. Neese,F.
     Software update: the ORCA program system, version 5.0
     WIRES Comput. Molec. Sci., 2022 12(1)e1606
     doi.org/10.1002/wcms.1606
  2. Mueller,M.; Hansen,A.; Grimme,S.
     wB97X-3c: A composite range-separated hybrid DFT method with a molecule-optimized polarized valence double-zeta basis set
     J. Chem. Phys., 2023 158 014103
     doi.org/10.1063/5.0133026

List of papers to cite with high priority. The work reported in these papers was absolutely
necessary for this run to complete.
Our perspective: the developers of density functionals and basis sets usually get cited in chemistry papers
Good! But without the algorithms to do something with them, the functionals or basis sets would not do anything.
Hence, in our opinion, the algorithm design and method developments papers are equally worthy of getting cited

  1. Neese,F.
     An improvement of the resolution of the identity approximation for the formation of the Coulomb matrix
     J. Comp. Chem., 2003 24(14)1740-1747
     doi.org/10.1002/jcc.10318
  2. Neese,F.; Wennmohs,F.; Hansen,A.; Becker,U.
     Efficient, approximate and parallel Hartree-Fock and hybrid DFT calculations. A 'chain-of-spheres' algorithm for the Hartree-Fock exchange
     Chem. Phys., 2009 356(1-3)98-109
     doi.org/10.1016/j.chemphys.2008.10.036
  3. Helmich-Paris,B.; de Souza,B.; Neese,F.; Izsák,R.
     An improved chain of spheres for exchange algorithm
     J. Chem. Phys., 2021 155 104109
     doi.org/doi: 10.1063/5.0058766.
  4. Neese,F.
     The SHARK Integral Generation and Digestion System
     J. Comp. Chem., 2022  1-16
     doi.org/10.1002/jcc.26942
  5. Caldeweyher,E.; Bannwarth,C.; Grimme,S.
     Extension of the D3 dispersion coefficient model
     J. Chem. Phys., 2017 147 034112
     doi.org/10.1063/1.4993215
  6. Caldeweyher,E.; Ehlert,S.; Hansen,A.; Neugebauer,H.; Spicher,S.; Bannwarth,C.; Grimme,S.
     A generally applicable atomic-charge dependent London dispersion correction
     J. Chem. Phys., 2019 150 154122
     doi.org/10.1063/1.5090222
  7. Caldeweyher,E.; Mewes,J.; Ehlert,S.; Grimme,S.
     Extension and evaluation of the D4 London-dispersion model for periodic systems
     Phys. Chem. Chem. Phys., 2020 22(16)8499-8512
     doi.org/10.1039/D0CP00502A
  8. Wittmann,L.; Gordiy,I.; Friede,M.; Helmich-Paris,B.; Grimme,S.; Hansen,A.; Bursch,M.
     Extension of the D3 and D4 London Dispersion Corrections to the full Actinides Series
     Phys. Chem. Chem. Phys., 2024 26(32)21379-21394
     doi.org/https://doi.org/10.1039/D4CP01514B 

List of suggested additional citations. These are papers that are important in the 'surrounding' of 
of this run, or papers that preceded the highly important papers. If you like your results we are grateful for a citation.

  1. Izsak,R.; Neese,F.
     An overlap fitted chain of spheres exchange method
     J. Chem. Phys., 2011 135 144105
     doi.org/10.1063/1.3646921
  2. Izsak,R.; Hansen,A.; Neese,F.
     The resolution of identity and chain of spheres approximations for the LPNO-CCSD singles Fock term
     Molec. Phys., 2012 110 2413-2417
     doi.org/10.1080/00268976.2012.687466
  3. Neese,F.
     The ORCA program system
     WIRES Comput. Molec. Sci., 2012 2(1)73-78
     doi.org/10.1002/wcms.81
  4. Izsak,R.; Neese,F.; Klopper,W.
     Robust fitting techniques in the chain of spheres approximation to the Fock exchange: The role of the complementary space
     J. Chem. Phys., 2013 139 
     doi.org/10.1063/1.4819264
  5. Neese,F.
     Software update: the ORCA program system, version 4.0
     WIRES Comput. Molec. Sci., 2018 8(1)1-6
     doi.org/10.1002/wcms.1327
  6. Neese,F.; Wennmohs,F.; Becker,U.; Riplinger,C.
     The ORCA quantum chemistry program package
     J. Chem. Phys., 2020 152 Art. No. L224108
     doi.org/10.1063/5.0004608

List of optional additional citations

  1. Neese,F.
     Approximate second-order SCF convergence for spin unrestricted wavefunctions
     Chem. Phys. Lett., 2000 325(1-3)93-98
     doi.org/10.1016/s0009-2614(00)00662-x

Timings for individual modules:

Sum of individual times          ...       63.419 sec (=   1.057 min)
Startup calculation              ...        1.123 sec (=   0.019 min)   1.8 %
SCF iterations                   ...       62.207 sec (=   1.037 min)  98.1 %
Property calculations            ...        0.089 sec (=   0.001 min)   0.1 %
                             ****ORCA TERMINATED NORMALLY****
TOTAL RUN TIME: 0 days 0 hours 1 minutes 6 seconds 665 msec
