
                                 *****************
                                 * O   R   C   A *
                                 *****************

                                            #,                                       
                                            ###                                      
                                            ####                                     
                                            #####                                    
                                            ######                                   
                                           ########,                                 
                                     ,,################,,,,,                         
                               ,,#################################,,                 
                          ,,##########################################,,             
                       ,#########################################, ''#####,          
                    ,#############################################,,   '####,        
                  ,##################################################,,,,####,       
                ,###########''''           ''''###############################       
              ,#####''   ,,,,##########,,,,          '''####'''          '####       
            ,##' ,,,,###########################,,,                        '##       
           ' ,,###''''                  '''############,,,                           
         ,,##''                                '''############,,,,        ,,,,,,###''
      ,#''                                            '''#######################'''  
     '                                                          ''''####''''         
             ,#######,   #######,   ,#######,      ##                                
            ,#'     '#,  ##    ##  ,#'     '#,    #''#        ,####,   ,####,        
            ##       ##  ##   ,#'  ##            #'  '#       #'       #'  '#        
            ##       ##  #######   ##           ,######,      #####,   #    #        
            '#,     ,#'  ##    ##  '#,     ,#' ,#      #,     #,   #   #,  ,#        
             '#######'   ##     ##  '#######'  #'      '#     '####' # '####'        



                #########################################################
                #                        -***-                          #
                #          Department of theory and spectroscopy        #
                #                                                       #
                #                      Frank Neese                      #
                #                                                       #
                #     Directorship, Architecture, Infrastructure        #
                #                    SHARK, DRIVERS                     #
                #        Core code/Algorithms in most modules           #
                #                                                       #
                #        Max Planck Institute fuer Kohlenforschung      #
                #                Kaiser Wilhelm Platz 1                 #
                #                 D-45470 Muelheim/Ruhr                 #
                #                      Germany                          #
                #                                                       #
                #                  All rights reserved                  #
                #                        -***-                          #
                #########################################################


                         Program Version 6.0.1  -  RELEASE   -


 With contributions from (in alphabetic order):
[Max-Planck-Institut fuer Kohlenforschung]                               
  Daniel Aravena         : Magnetic Suceptibility                        
  Michael Atanasov       : Ab Initio Ligand Field Theory (pilot matlab implementation)
  Alexander A. Auer      : GIAO ZORA, VPT2 properties, NMR spectrum      
  Ute Becker             : All parallelization in ORCA, NUMFREQ, NUMCALC 
  Giovanni Bistoni       : ED, misc. LED, open-shell LED, HFLD           
  Martin Brehm           : Molecular dynamics                            
  Dmytro Bykov           : pre 5.0 version of the SCF Hessian            
  Marcos Casanova-Páez   : Triplet and SCS-CIS(D). UHF-(DLPNO)-IP/EA/STEOM-CCSD. UHF-CVS-IP/STEOM-CCSD   
  Vijay G. Chilkuri      : MRCI spin determinant printing, contributions to CSF-ICE 
  Pauline Colinet        : FMM embedding                                 
  Dipayan Datta          : RHF DLPNO-CCSD density                        
  Achintya Kumar Dutta   : EOM-CC, STEOM-CC                              
  Nicolas Foglia         : Exact transition moments, OPA infrastructure, MCD improvements    
  Dmitry Ganyushin       : Spin-Orbit,Spin-Spin,Magnetic field MRCI      
  Miquel Garcia-Rates    : C-PCM and meta-GGA Hessian, CCSD/C-PCM, Gaussian charge scheme 
  Tiago L. C. Gouveia    : GS-ROHF, GS-ROCIS                             
  Yang Guo               : DLPNO-NEVPT2, F12-NEVPT2, CIM, IAO-localization        
  Andreas Hansen         : Spin unrestricted coupled pair/coupled cluster methods 
  Ingolf Harden          : AUTO-CI MPn and infrastructure                
  Benjamin Helmich-Paris : MC-RPA, TRAH-(SCF,CASSCF), AVAS, COSX integrals, SCF dyn. polar. 
  Lee Huntington         : MR-EOM, pCC                                   
  Robert Izsak           : Overlap fitted RIJCOSX, COSX-SCS-MP3, EOM     
  Riya Kayal             : Wick's Theorem for AUTO-CI, AUTO-CI UHF-CCSDT 
  Emily Kempfer          : AUTO-CI, RHF CISDT and CCSDT                  
  Christian Kollmar      : KDIIS, OOCD, Brueckner-CCSD(T), CCSD density, CASPT2, CASPT2-K, improved NEVPT2 
  Axel Koslowski         : Symmetry handling                             
  Simone Kossmann        : meta-GGA functionals, TD-DFT gradient, OOMP2, (MP2 Hessian; deprecated post 5.0) 
  Lucas Lang             : DCDCAS                                        
  Marvin Lechner         : AUTO-CI (C++ implementation), FIC-MRCC        
  Spencer Leger          : CASSCF response                               
  Dagmar Lenk            : GEPOL surface, SMD, ORCA-2-JSON               
  Dimitrios Liakos       : Extrapolation schemes; Compound Job, initial MDCI parallelization 
  Dimitrios Manganas     : Further ROCIS development; embedding schemes. LFT, Crystal Embedding 
  Dimitrios Pantazis     : SARC Basis sets                               
  Anastasios Papadopoulos: AUTO-CI, single reference methods and gradients 
  Taras Petrenko         : pre 6.0 DFT Hessian and TD-DFT gradient, (ASA, deprecated), ECA, 1-Electron XAS/XES, NRVS 
  Peter Pinski           : DLPNO-MP2, DLPNO-MP2 Gradient                 
  Christoph Reimann      : Effective Core Potentials                     
  Marius Retegan         : Local ZFS, SOC                                
  Christoph Riplinger    : Optimizer, TS searches, QM/MM, DLPNO-CCSD(T), (RO)-DLPNO pert. Triples 
  Michael Roemelt        : Original ROCIS implementation                 
  Masaaki Saitow         : Open-shell DLPNO-CCSD energy and density      
  Barbara Sandhoefer     : DKH picture change effects                    
  Kantharuban Sivalingam : CASSCF convergence/infrastructure, NEVPT2 and variants, FIC-MRCI 
  Bernardo de Souza      : ESD, SOC TD-DFT                               
  Georgi L. Stoychev     : AutoAux, RI-MP2 NMR, DLPNO-MP2 response, X2C  
  Van Anh Tran           : RI-MP2 g-tensors                              
  Willem Van den Heuvel  : Paramagnetic NMR                              
  Zikuan Wang            : NOTCH, Electric field optimization            
  Frank Wennmohs         : Technical directorship and infrastructure     
  Hang Xu                : AUTO-CI-Response properties                   
                                                                         
[FACCTs GmbH]                                                            
  Markus Bursch, Miquel Garcia-Rates, Christoph Riplinger, Bernardo de Souza, Georgi L. Stoychev 
                                                                 
  APM, Basis sets (HGBS, AHGBS, def-TZVP (Ac-Lr), def2-XVPD (La-Lu)), CI-OPT, improved COSX, DLPNO-Multilevel,           
  DOCKER, DRACO, updates on ESD, GOAT, IRC, LR-CPCM, MBIS, meta-GGA TD-DFT gradient, ML-optimized integration grids, 
  MM, NACMEs, nearIR, NEB, NEB-TS, NL-DFT gradient (VV10), 2- and 3-layer-ONIOM, interface openCOSMO-RS, QMMM,   
  Crystal-QMMM, SF, symmetry and pop. for TD-DFT, r2SCAN hybrids, SOLVATOR                                   
                                                                         
[Other institutions]                                                     
  V. Asgeirsson          : NEB                                           
  Christoph Bannwarth    : sTDA-DFT, sTD-DFT, PBEh-3c, B97-3c, D3        
  Sebastian Ehlert       : rSCAN, r2SCAN, r2SCAN-3c, D4, dhf basis sets  
  Marvin Friede          : D4 for Fr, Ra, Ac-Lr                          
  Lars Goerigk           : TD-DFT with DH, B97 family of functionals     
  Stefan Grimme          : VdW corrections, initial TS optimization, DFT functionals, gCP, sTDA/sTD-DF 
  Waldemar Hujo          : DFT-NL                                        
  H. Jonsson             : NEB                                           
  Holger Kruse           : gCP                                           
  Marcel Mueller         : wB97X-3c, vDZP basis set                      
  Hagen Neugebauer       : wr2SCAN                                       
  Tobias Risthaus        : range-separated hybrid DFT                    
  Lukas Wittmann         : regularized MP2, r2SCAN double-hybrids, wr2SCAN        
                                                                         
We gratefully acknowledge several colleagues who have allowed us to      
interface, adapt or use parts of their codes:                            
  Ed Valeev, F. Pavosevic, A. Kumar             : LibInt (2-el integral package), F12 methods 
  Garnet Chan, S. Sharma, J. Yang, R. Olivares  : DMRG                   
  Ulf Ekstrom                                   : XCFun DFT Library      
  Mihaly Kallay                                 : mrcc  (arbitrary order and MRCC methods)
  Frank Weinhold                                : gennbo (NPA and NBO analysis)           
  Simon Mueller                                 : openCOSMO-RS                            
  Christopher J. Cramer and Donald G. Truhlar   : smd solvation model                     
  S Lehtola, MJT Oliveira, MAL Marques          : LibXC Library                           
  Liviu Ungur et al                             : ANISO software                          


 Your calculation uses the libint2 library for the computation of 2-el integrals
 For citations please refer to: http://libint.valeyev.net

 Your ORCA version has been built with support for libXC version: 6.2.2
 For citations please refer to: https://libxc.gitlab.io

 This ORCA versions uses:
   CBLAS   interface :  Fast vector & matrix operations
   LAPACKE interface :  Fast linear algebra routines
   SCALAPACK package :  Parallel linear algebra routines
   Shared memory     :  Shared parallel matrices
   BLAS/LAPACK       :  OpenBLAS 0.3.27  USE64BITINT DYNAMIC_ARCH NO_AFFINITY Haswell SINGLE_THREADED
        Core in use  :  Haswell
   Copyright (c) 2011-2014, The OpenBLAS Project


NOTE: MaxCore=8000 MB was set to SCF,MP2,MDCI,CIPSI,MRCI and CIS
      => If you want to overwrite this, your respective input block should be placed after the MaxCore statement


***************************************
The coordinates will be read from file: fragment.xyz
***************************************


Your calculation utilizes the atom-pairwise dispersion correction
based on EEQ partial charges (D4)


================================================================================

cite the ECPs for C  [vDZP-ECP], O  [vDZP-ECP] as follows:
   B-Ne (ecp-2-mwb), Al-Ar (ecp-10-mwb), Ga-Kr (ecp-28-mwb), Y-Cd (ecp-28-mwb), In-Xe (ecp-46-mwb):
     A. Bergner, M. Dolg, W. Küchle, H. Stoll, and H. Preuß, Mol. Phys. 80, 1431 (1993)., T. Leininger, A. Berning, A. Nicklass, H. Stoll, H.-J. Werner, and H.-J.Flad, Chem. Phys. 217, 19 (1997).
   Na-Mg, K-Ca, Rb-Sr, Cs-Ba (CRENBL):
     L. Fernandez Pacios and P. A. Christiansen, J. Chem. Phys. 82, 2664 (1985)., M. M. Hurley, L. F. Pacios, P. A. Christiansen, R. B. Ross, and W. C. Ermler, J. Chem. Phys. 84, 6840 (1986)., L. A. LaJohn, P. A. Christiansen, R. B. Ross, T. Atashroo, and W. C. Ermler, J. Chem. Phys. 87, 2812 (1987)., R. B. Ross, J. M. Powers, T. Atashroo, W. C. Ermler, L. A. LaJohn, and P. A. Christiansen, J. Chem. Phys. 93, 6654 (1990). 
   Sc-Zn (ecp-10-mdf):
     M. Dolg, U. Wedig, H. Stoll, and H. Preuss, J. Chem. Phys. 86, 866 (1986). 
   Y-Cd (ecp-28-mwb), Hf-Hg (ecp-60-mwb):
     D. Andrae, U. Häußermann, M. Dolg, H. Stoll, and H. Preuß, Theor. Chim. Acta 77, 123 (1990). 
   La (ecp-46-mwb):
     M. Dolg, H. Stoll, and H. Preuss, J. Chem. Phys. 90, 1730 (1989)., M. Dolg, H. Stoll, and H. Preuss, Theor. Chim. Acta 85, 441 (1993).
   Ce-Lu (SBKJC-ecp):
     T. R. Cundari and W. J. Stevens, J. Chem. Phys. 98, 5555 (1993).
   Tl-Rn (ecp-78-mwb):
     W. Küchle, M. Dolg, H. Stoll, and H. Preuss, Mol. Phys. 74, 1245 (1991).

ECP parameters for C  [vDZP-ECP], O  [vDZP-ECP] have been obtained from:
MM, AH, SG, J. Chem. Phys. 158, 014103 (2023), 10.1063/5.0133026

----- Orbital basis set information -----
Your calculation utilizes the basis: vDZP
   Marcel Mueller, Andreas Hansen, Stefan Grimme 
   J. Chem. Phys. 158, 014103 (2023). DOI: 10.1063/5.0133026

----- AuxJ basis set information -----
Your calculation utilizes the auxiliary basis: def2/J
   F. Weigend, Phys. Chem. Chem. Phys. 8, 1057 (2006).

================================================================================
                                        WARNINGS
                       Please study these warnings very carefully!
================================================================================

WARNING: Frozen-Core approximation turned on, but there are no core electrons.
  ===> : Turning off frozen-core approximation

WARNING: Old DensityContainer found on disk!
         Will remove this file - 
         If you want to keep old densities, please start your calculation with a different basename. 


WARNING: your system is open-shell and RHF/RKS was chosen
  ===> : WILL SWITCH to UHF/UKS


================================================================================
                                       INPUT FILE
================================================================================
NAME = orca.inp
|  1>  ! DEFGRID2 
|  2>  ! wB97X-3c
|  3>  ! SP
|  4>  %pal
|  5> nprocs 1
|  6>  end
|  7>  %maxcore 8000
|  8>  *xyzfile            0             2  fragment.xyz
|  9> 
| 10>                          ****END OF INPUT****
================================================================================

                       ****************************
                       * Single Point Calculation *
                       ****************************

---------------------------------
CARTESIAN COORDINATES (ANGSTROEM)
---------------------------------
  C     -2.178491   -3.224163   -0.035514
  C     -0.805392   -2.732392    0.214770
  O     -0.501590   -1.441581   -0.101574
  H     -2.426888   -3.230111   -1.104074
  H     -2.288576   -4.240565    0.336965
  H     -2.925895   -2.607376    0.470119
  H      0.052142   -3.382498    0.115445
  H     -1.290778   -0.898771   -0.061859

----------------------------
CARTESIAN COORDINATES (A.U.)
----------------------------
  NO LB      ZA    FRAG     MASS         X           Y           Z
   0 C     4.0000*   0    12.011   -4.116752   -6.092786   -0.067112
   1 C     4.0000*   0    12.011   -1.521970   -5.163473    0.405856
   2 O     6.0000*   0    15.999   -0.947868   -2.724194   -0.191947
   3 H     1.0000    0     1.008   -4.586154   -6.104025   -2.086397
   4 H     1.0000    0     1.008   -4.324782   -8.013506    0.636772
   5 H     1.0000    0     1.008   -5.529140   -4.927226    0.888396
   6 H     1.0000    0     1.008    0.098535   -6.391994    0.218159
   7 H     1.0000    0     1.008   -2.439218   -1.698432   -0.116896
* core charge reduced due to ECP

--------------------------------
INTERNAL COORDINATES (ANGSTROEM)
--------------------------------
 C      0   0   0     0.000000000000     0.00000000     0.00000000
 C      1   0   0     1.479825324913     0.00000000     0.00000000
 O      2   1   0     1.363290473984   118.82761428     0.00000000
 H      1   2   3     1.097067072767   112.12491772    64.29345851
 H      1   2   3     1.088086140049   110.26740888   184.40146128
 H      1   2   3     1.093024797037   111.63631989   303.74383626
 H      2   1   3     1.080679049028   121.38783205   213.64914646
 H      3   2   1     0.958664595388   110.06280305    26.86682273

---------------------------
INTERNAL COORDINATES (A.U.)
---------------------------
 C      0   0   0     0.000000000000     0.00000000     0.00000000
 C      1   0   0     2.796464590127     0.00000000     0.00000000
 O      2   1   0     2.576245636814   118.82761428     0.00000000
 H      1   2   3     2.073156318073   112.12491772    64.29345851
 H      1   2   3     2.056184814809   110.26740888   184.40146128
 H      1   2   3     2.065517523984   111.63631989   303.74383626
 H      2   1   3     2.042187441329   121.38783205   213.64914646
 H      3   2   1     1.811613539569   110.06280305    26.86682273

---------------------
BASIS SET INFORMATION
---------------------
There are 3 groups of distinct atoms

 Group   1 Type C   : 6s6p2d contracted to 2s2p1d pattern {42/42/2}
 Group   2 Type O   : 6s6p2d contracted to 2s2p1d pattern {42/42/2}
 Group   3 Type H   : 8s2p contracted to 2s1p pattern {53/2}

Atom   0C    basis set group =>   1
Atom   1C    basis set group =>   1
Atom   2O    basis set group =>   2
Atom   3H    basis set group =>   3
Atom   4H    basis set group =>   3
Atom   5H    basis set group =>   3
Atom   6H    basis set group =>   3
Atom   7H    basis set group =>   3
---------------------------------
AUXILIARY/J BASIS SET INFORMATION
---------------------------------
There are 3 groups of distinct atoms

 Group   1 Type C   : 12s5p4d2f1g contracted to 6s4p3d1f1g pattern {711111/2111/211/2/1}
 Group   2 Type O   : 12s5p4d2f1g contracted to 6s4p3d1f1g pattern {711111/2111/211/2/1}
 Group   3 Type H   : 5s2p1d contracted to 3s1p1d pattern {311/2/1}

Atom   0C    basis set group =>   1
Atom   1C    basis set group =>   1
Atom   2O    basis set group =>   2
Atom   3H    basis set group =>   3
Atom   4H    basis set group =>   3
Atom   5H    basis set group =>   3
Atom   6H    basis set group =>   3
Atom   7H    basis set group =>   3
-------------------------
ECP PARAMETER INFORMATION
-------------------------

 Group 1, Type C  ECP vDZP-ECP (replacing 2 core electrons, lmax=3)
 Group 2, Type O  ECP vDZP-ECP (replacing 2 core electrons, lmax=3)

Atom   0C    ECP group =>   1
Atom   1C    ECP group =>   1
Atom   2O    ECP group =>   2

------------------------------------------------------------------------------
                             ORCA STARTUP CALCULATIONS
                           -- RI-GTO INTEGRALS CHOSEN --
------------------------------------------------------------------------------
------------------------------------------------------------------------------
                   ___                                                        
                  /   \      - P O W E R E D   B Y -                         
                 /     \                                                     
                 |  |  |   _    _      __       _____    __    __             
                 |  |  |  | |  | |    /  \     |  _  \  |  |  /  |          
                  \  \/   | |  | |   /    \    | | | |  |  | /  /          
                 / \  \   | |__| |  /  /\  \   | |_| |  |  |/  /          
                |  |  |   |  __  | /  /__\  \  |    /   |      \           
                |  |  |   | |  | | |   __   |  |    \   |  |\   \          
                \     /   | |  | | |  |  |  |  | |\  \  |  | \   \       
                 \___/    |_|  |_| |__|  |__|  |_| \__\ |__|  \__/        
                                                                              
                      - O R C A' S   B I G   F R I E N D -                    
                                      &                                       
                       - I N T E G R A L  F E E D E R -                       
                                                                              
 v1 FN, 2020, v2 2021, v3 2022-2024                                           
------------------------------------------------------------------------------


----------------------
SHARK INTEGRAL PACKAGE
----------------------

Number of atoms                             ...      8
Number of basis functions                   ...     64
Number of shells                            ...     30
Maximum angular momentum                    ...      2
Integral batch strategy                     ... SHARK/LIBINT Hybrid
RI-J (if used) integral strategy            ... SPLIT-RIJ (Revised 2003 algorithm where possible)
Printlevel                                  ...      1
Contraction scheme used                     ... SEGMENTED contraction
Prescreening option                         ... SCHWARTZ
   Thresh                                   ... 1.000e-10
   Tcut                                     ... 1.000e-11
   Tpresel                                  ... 1.000e-11 
Coulomb Range Separation                    ... NOT USED
Exchange Range Separation                   ... Long Range
   Mu parameter                             ... 3.000e-01
   Scaling (regular/separated)              ... 1.670e-01 8.330e-01
Multipole approximations                    ... NOT USED
Finite Nucleus Model                        ... NOT USED
CABS basis                                  ... NOT available
Auxiliary Coulomb fitting basis             ... AVAILABLE
   # of basis functions in Aux-J            ...    202
   # of shells in Aux-J                     ...     70
   Maximum angular momentum in Aux-J        ...      4
Auxiliary J/K fitting basis                 ... NOT available
Auxiliary Correlation fitting basis         ... NOT available
Auxiliary 'external' fitting basis          ... NOT available

Checking pre-screening integrals            ... done (  0.0 sec) Dimension = 30
Check shell pair data                       ... done (  0.0 sec)
Shell pair information
Shell pair cut-off parameter TPreSel        ...   1.0e-11
Total number of shell pairs                 ...       465
Shell pairs after pre-screening             ...       465
Total number of primitive shell pairs       ...      4393
Primitive shell pairs kept                  ...      4100
          la=0 lb=0:    136 shell pairs
          la=1 lb=0:    176 shell pairs
          la=1 lb=1:     66 shell pairs
          la=2 lb=0:     48 shell pairs
          la=2 lb=1:     33 shell pairs
          la=2 lb=2:      6 shell pairs

Calculating one electron integrals          ... done (  0.0 sec)
Calculating ECP integrals                   ... done (  0.0 sec)
Calculating RI/J V-Matrix + Cholesky decomp.... done (  0.0 sec)
Calculating Nuclear repulsion               ... done (  0.0 sec) ENN=     44.194263502124 Eh

Diagonalization of the overlap matrix:
Smallest eigenvalue                        ... 2.873e-03
Time for diagonalization                   ...    0.001 sec
Threshold for overlap eigenvalues          ... 1.000e-07
Number of eigenvalues below threshold      ... 0
Time for construction of square roots      ...    0.000 sec
Total time needed                          ...    0.001 sec

-------------------
DFT GRID GENERATION
-------------------

General Integration Accuracy     IntAcc      ... 4.388
Radial Grid Type                 RadialGrid  ... OptM3 with GC (2021)
Angular Grid (max. ang.)         AngularGrid ... 4 (Lebedev-302)
Angular grid pruning method      GridPruning ... 4 (adaptive)
Weight generation scheme         WeightScheme... mBecke (2022)
Basis function cutoff            BFCut       ... 1.0000e-10
Integration weight cutoff        WCut        ... 1.0000e-14
Partially contracted basis set               ... off
Rotationally invariant grid construction     ... off
Angular grids for H and He will be reduced by one unit

Total number of grid points                  ...    34559
Total number of batches                      ...      545
Average number of points per batch           ...       63
Average number of grid points per atom       ...     4320

--------------------
COSX GRID GENERATION
--------------------

GRIDX 1
-------
General Integration Accuracy     IntAcc      ... 3.816
Radial Grid Type                 RadialGrid  ... OptM3 with GC (2021)
Angular Grid (max. ang.)         AngularGrid ... 1 (Lebedev-50)
Angular grid pruning method      GridPruning ... 4 (adaptive)
Weight generation scheme         WeightScheme... mBecke (2022)
Basis function cutoff            BFCut       ... 1.0000e-10
Integration weight cutoff        WCut        ... 1.0000e-14
Partially contracted basis set               ... on
Rotationally invariant grid construction     ... off
Angular grids for H and He will be reduced by one unit

Total number of grid points                  ...     4471
Total number of batches                      ...       40
Average number of points per batch           ...      111
Average number of grid points per atom       ...      559
UseSFitting                                  ... on

GRIDX 2
-------
General Integration Accuracy     IntAcc      ... 4.020
Radial Grid Type                 RadialGrid  ... OptM3 with GC (2021)
Angular Grid (max. ang.)         AngularGrid ... 2 (Lebedev-110)
Angular grid pruning method      GridPruning ... 4 (adaptive)
Weight generation scheme         WeightScheme... mBecke (2022)
Basis function cutoff            BFCut       ... 1.0000e-10
Integration weight cutoff        WCut        ... 1.0000e-14
Partially contracted basis set               ... on
Rotationally invariant grid construction     ... off
Angular grids for H and He will be reduced by one unit

Total number of grid points                  ...     9498
Total number of batches                      ...       77
Average number of points per batch           ...      123
Average number of grid points per atom       ...     1187
UseSFitting                                  ... on

GRIDX 3
-------
General Integration Accuracy     IntAcc      ... 4.338
Radial Grid Type                 RadialGrid  ... OptM3 with GC (2021)
Angular Grid (max. ang.)         AngularGrid ... 3 (Lebedev-194)
Angular grid pruning method      GridPruning ... 4 (adaptive)
Weight generation scheme         WeightScheme... mBecke (2022)
Basis function cutoff            BFCut       ... 1.0000e-10
Integration weight cutoff        WCut        ... 1.0000e-14
Partially contracted basis set               ... on
Rotationally invariant grid construction     ... off
Angular grids for H and He will be reduced by one unit

Total number of grid points                  ...    20918
Total number of batches                      ...      167
Average number of points per batch           ...      125
Average number of grid points per atom       ...     2615
UseSFitting                                  ... on
Initializing property integral containers    ... done (  0.0 sec)

SHARK setup successfully completed in   0.6 seconds

Maximum memory used throughout the entire STARTUP-calculation: 15.8 MB
-------------------------------------------------------------------------------
                                 ORCA GUESS
                   Start orbitals & Density for SCF / CASSCF
-------------------------------------------------------------------------------

------------
SCF SETTINGS
------------
Hamiltonian:
 Density Functional     Method          .... DFT(GTOs)
 Exchange Functional    Exchange        .... WB97X-V
 Correlation Functional Correlation     .... WB97X-V
 Gradients option       PostSCFGGA      .... off
 Hybrid DFT is turned on
   Fraction HF Exchange ScalHFX         ....  0.167000
   Scaling of DF-GGA-X  ScalDFX         ....  0.000000
   Scaling of DF-GGA-C  ScalDFC         ....  1.000000
   Scaling of DF-LDA-C  ScalLDAC        ....  1.000000
   Perturbative correction              ....  0.000000
 Long-range corrected/Screened/Range-Separated Hybrid DFT is turned on
   Amount of maximum screened exact exchange              ....  0.833000
   Range separation parameter mu (erf(mu*r12)/r12)        ....  0.300000
   NL short-range parameter             ....  6.000000
   NL long-range parameter              ....  0.010000
 RI-approximation to the Coulomb term is turned on
   Number of AuxJ basis functions       .... 202
   RIJ-COSX (HFX calculated with COS-X)).... on


General Settings:
 Integral files         IntName         .... orca
 Hartree-Fock type      HFTyp           .... UHF
 Total Charge           Charge          ....    0
 Multiplicity           Mult            ....    2
 Number of Electrons    NEL             ....   19
 Basis Dimension        Dim             ....   64
 Nuclear Repulsion      ENuc            ....     44.1942635021 Eh

Convergence Acceleration:
 AO-DIIS                CNVDIIS         .... on
   Start iteration      DIISMaxIt       ....    12
   Startup error        DIISStart       ....  0.200000
   # of expansion vecs  DIISMaxEq       ....     5
   Bias factor          DIISBfac        ....   1.050
   Max. coefficient     DIISMaxC        ....  10.000
 MO-DIIS                CNVKDIIS        .... off
 Trust-Rad. Augm. Hess. CNVTRAH         .... auto
   Auto Start mean grad. ratio tolernc. ....  1.125000
   Auto Start start iteration           ....    50
   Auto Start num. interpolation iter.  ....    10
   Max. Number of Micro iterations      ....    24
   Max. Number of Macro iterations      .... Maxiter - #DIIS iter
   Number of Davidson start vectors     ....     2
   Converg. threshold    (grad. norm)   ....   5.000e-05
   Grad. Scal. Fac. for Micro threshold ....   0.100
   Minimum threshold for Micro iter.    ....   1.000e-02
   NR start threshold (gradient norm)   ....   1.000e-04
   Initial trust radius                 ....   0.400
   Minimum AH scaling param. (alpha)    ....   1.000
   Maximum AH scaling param. (alpha)    .... 1000.000
   Quad. conv. algorithm                .... NR
   White noise on init. David. guess    .... on
   Maximum white noise                  ....   0.010
   Pseudo random numbers                .... off
   Inactive MOs                         .... canonical
   Orbital update algorithm             .... Taylor
   Preconditioner                       .... Diag
   Full preconditioner red. dimension   ....   250
 SOSCF                  CNVSOSCF        .... on
   Start iteration      SOSCFMaxIt      ....   150
   Startup grad/error   SOSCFStart      ....  0.003300
   Hessian update       SOSCFHessUp     .... L-BFGS
 Level Shifting         CNVShift        .... on
   Level shift para.    LevelShift      ....    0.2500
   Turn off err/grad.   ShiftErr        ....    0.0010
 Zerner damping         CNVZerner       .... off
 Static damping         CNVDamp         .... on
   Fraction old density DampFac         ....    0.7000
   Max. Damping (<1)    DampMax         ....    0.9800
   Min. Damping (>=0)   DampMin         ....    0.0000
   Turn off err/grad.   DampErr         ....    0.1000

SCF Procedure:
 Maximum # iterations   MaxIter         ....   125
 SCF integral mode      SCFMode         .... Direct
   Integral package                     .... SHARK and LIBINT hybrid scheme
 Reset frequency        DirectResetFreq ....    20
 Integral Threshold     Thresh          ....  1.000e-10 Eh
 Primitive CutOff       TCut            ....  1.000e-11 Eh

Convergence Tolerance:
 Convergence Check Mode ConvCheckMode   .... Total+1el-Energy
 Convergence forced     ConvForced      .... 0
 Energy Change          TolE            ....  1.000e-06 Eh
 1-El. energy change                    ....  1.000e-03 Eh
 Orbital Gradient       TolG            ....  5.000e-05
 Orbital Rotation angle TolX            ....  5.000e-05
 DIIS Error             TolErr          ....  1.000e-06

------------------------------
INITIAL GUESS: MODEL POTENTIAL
------------------------------
Loading Hartree-Fock densities                     ... done
Atomic calculation to generate a density for atom 0 (C  with ECP)
  Multiplicity assumed   :    1
  Atomic configuration   : 1s2 2s2 2p2 
  Number of open shells  : 1
  Command: /home/alejandro/orca_6_0_1/orca orca_atom6.inp "" > orca_atom6.out
Returned from the atomic calculation with res=0
Atomic calculation to generate a density for atom 2 (O  with ECP)
  Multiplicity assumed   :    3
  Atomic configuration   : 1s2 2s2 2p4 
  Number of open shells  : 1
  Command: /home/alejandro/orca_6_0_1/orca orca_atom8.inp "" > orca_atom8.out
Returned from the atomic calculation with res=0
Calculating cut-offs                               ... done
Initializing the effective Hamiltonian             ... done
Setting up the integral package (SHARK)            ... done
Starting the Coulomb interaction                   ... done (   0.1 sec)
Making the grid                                    ... done (   0.1 sec)
Mapping shells                                     ... done
Starting the XC term evaluation                    ... done (   0.1 sec)
  promolecular density results
     # of electrons  =     24.997902763
     EX              =    -13.313760404
     EC              =     -1.005046933
     EX+EC           =    -14.318807336
Transforming the Hamiltonian                       ... done (   0.0 sec)
Diagonalizing the Hamiltonian                      ... done (   0.0 sec)
Back transforming the eigenvectors                 ... done (   0.0 sec)
Now organizing SCF variables                       ... done
                      ------------------
                      INITIAL GUESS DONE (   1.2 sec)
                      ------------------
             **** ENERGY FILE WAS UPDATED (orca.en.tmp) ****
Finished Guess after   1.2 sec
Maximum memory used throughout the entire GUESS-calculation: 8.8 MB

-------------------------------------------------------------------------------------------
                                      ORCA LEAN-SCF
                              memory conserving SCF solver
-------------------------------------------------------------------------------------------

----------------------------------------D-I-I-S--------------------------------------------
Iteration    Energy (Eh)           Delta-E    RMSDP     MaxDP     DIISErr   Damp  Time(sec)
-------------------------------------------------------------------------------------------
               ***  Starting incremental Fock matrix formation  ***
    1    -30.2758360094333199     0.00e+00  2.72e-03  3.61e-02  9.13e-02  0.700   2.9
    2    -30.3262317447664884    -5.04e-02  1.95e-03  2.69e-02  5.68e-02  0.700   1.5
                               ***Turning on AO-DIIS***
    3    -30.3526304654079695    -2.64e-02  8.97e-04  1.29e-02  3.15e-02  0.700   1.5
    4    -30.3683772123794284    -1.57e-02  1.87e-03  2.52e-02  2.03e-02  0.000   3.8
    5    -30.4021874027398553    -3.38e-02  3.21e-04  6.61e-03  3.70e-03  0.000   1.6
    6    -30.4023724879199193    -1.85e-04  1.75e-04  2.94e-03  3.74e-03  0.000   1.5
                              *** Initializing SOSCF ***
---------------------------------------S-O-S-C-F--------------------------------------
Iteration    Energy (Eh)           Delta-E    RMSDP     MaxDP     MaxGrad    Time(sec)
--------------------------------------------------------------------------------------
    7    -30.4024398489265195    -6.74e-05  1.39e-04  2.73e-03  1.29e-03     1.4
               *** Restarting incremental Fock matrix formation ***
    8    -30.4024973905522415    -5.75e-05  6.76e-05  1.34e-03  7.27e-04     2.9
    9    -30.4025035265083261    -6.14e-06  7.91e-05  1.58e-03  2.80e-04     2.5
   10    -30.4025055438176111    -2.02e-06  1.59e-05  2.85e-04  1.60e-04     2.5
   11    -30.4025058920807965    -3.48e-07  6.87e-06  1.21e-04  6.16e-05     2.3
                 **** Energy Check signals convergence ****

               *****************************************************
               *                     SUCCESS                       *
               *           SCF CONVERGED AFTER  11 CYCLES          *
               *****************************************************

Recomputing exchange energy using gridx3       ... done (    5.128 sec)
Old exchange energy                            :     -3.782593578 Eh
New exchange energy                            :     -3.782612012 Eh
Exchange energy change after final integration :     -0.000018434 Eh
Total energy after final integration           :    -30.402524326 Eh
             **** ENERGY FILE WAS UPDATED (orca.en.tmp) ****

----------------
TOTAL SCF ENERGY
----------------

Total Energy       :        -30.40252432559445 Eh            -827.29475 eV

Components:
Nuclear Repulsion  :         44.19426350212366 Eh            1202.58705 eV
Electronic Energy  :        -74.59676939420446 Eh           -2029.88129 eV
One Electron Energy:       -133.98874645255938 Eh           -3646.01915 eV
Two Electron Energy:         59.39197705835493 Eh            1616.13786 eV

Virial components:
Potential Energy   :        -54.52952455747793 Eh           -1483.82380 eV
Kinetic Energy     :         24.12700023188348 Eh             656.52905 eV
Virial Ratio       :          2.26010378552647

DFT components:
N(Alpha)           :       10.000010230982 electrons
N(Beta)            :        9.000001625752 electrons
N(Total)           :       19.000011856734 electrons
E(X)               :       -4.384291475869 Eh       
E(C)               :       -0.706595117588 Eh       
E(XC)              :       -5.090886593457 Eh       

---------------
SCF CONVERGENCE
---------------

  Last Energy change         ...    3.4826e-07  Tolerance :   1.0000e-06
  Last MAX-Density change    ...    1.2052e-04  Tolerance :   1.0000e-05
  Last RMS-Density change    ...    6.8692e-06  Tolerance :   1.0000e-06
  Last DIIS Error            ...    1.2901e-03  Tolerance :   1.0000e-06
  Last Orbital Gradient      ...    6.1636e-05  Tolerance :   5.0000e-05
  Last Orbital Rotation      ...    1.2332e-04  Tolerance :   5.0000e-05


----------------------
UHF SPIN CONTAMINATION
----------------------

Warning: in a DFT calculation there is little theoretical justification to 
         calculate <S**2> as in Hartree-Fock theory. We will do it anyways
         but you should keep in mind that the values have only limited relevance

Expectation value of <S**2>     :     0.753596
Ideal value S*(S+1) for S=0.5   :     0.750000
Deviation                       :     0.003596

----------------
ORBITAL ENERGIES
----------------
                 SPIN UP ORBITALS
  NO   OCC          E(Eh)            E(eV) 
   0   1.0000      -1.181184       -32.1416 
   1   1.0000      -0.890465       -24.2308 
   2   1.0000      -0.762081       -20.7373 
   3   1.0000      -0.611508       -16.6400 
   4   1.0000      -0.589248       -16.0342 
   5   1.0000      -0.555910       -15.1271 
   6   1.0000      -0.496510       -13.5107 
   7   1.0000      -0.492437       -13.3999 
   8   1.0000      -0.455676       -12.3996 
   9   1.0000      -0.269109        -7.3228 
  10   0.0000       0.078030         2.1233 
  11   0.0000       0.106917         2.9094 
  12   0.0000       0.122090         3.3222 
  13   0.0000       0.142174         3.8688 
  14   0.0000       0.159680         4.3451 
  15   0.0000       0.274475         7.4688 
  16   0.0000       0.315008         8.5718 
  17   0.0000       0.406764        11.0686 
  18   0.0000       0.431341        11.7374 
  19   0.0000       0.461760        12.5651 
  20   0.0000       0.477775        13.0009 

                 SPIN DOWN ORBITALS
  NO   OCC          E(Eh)            E(eV) 
   0   1.0000      -1.169642       -31.8276 
   1   1.0000      -0.878517       -23.9057 
   2   1.0000      -0.745798       -20.2942 
   3   1.0000      -0.598010       -16.2727 
   4   1.0000      -0.581644       -15.8273 
   5   1.0000      -0.532965       -14.5027 
   6   1.0000      -0.492609       -13.4046 
   7   1.0000      -0.467392       -12.7184 
   8   1.0000      -0.443448       -12.0668 
   9   0.0000       0.060692         1.6515 
  10   0.0000       0.080571         2.1925 
  11   0.0000       0.109336         2.9752 
  12   0.0000       0.124832         3.3969 
  13   0.0000       0.145900         3.9701 
  14   0.0000       0.161137         4.3848 
  15   0.0000       0.285753         7.7757 
  16   0.0000       0.321230         8.7411 
  17   0.0000       0.412472        11.2239 
  18   0.0000       0.455678        12.3996 
  19   0.0000       0.473423        12.8825 
*Only the first 10 virtual orbitals were printed.

                    ********************************
                    * MULLIKEN POPULATION ANALYSIS *
                    ********************************

--------------------------------------------
MULLIKEN ATOMIC CHARGES AND SPIN POPULATIONS
--------------------------------------------
   0 C :   -0.088132   -0.050281
   1 C :    0.000071    0.892182
   2 O :   -0.216035    0.098092
   3 H :    0.039329    0.061832
   4 H :    0.047107    0.001558
   5 H :    0.037113    0.012317
   6 H :    0.027669   -0.013103
   7 H :    0.152878   -0.002598
Sum of atomic charges         :   -0.0000000
Sum of atomic spin populations:    1.0000000

-----------------------------------------------------
MULLIKEN REDUCED ORBITAL CHARGES AND SPIN POPULATIONS
-----------------------------------------------------
CHARGE
  0 C s       :     0.929296  s :     0.929296
      pz      :     1.053802  p :     3.082339
      px      :     0.971770
      py      :     1.056767
      dz2     :     0.017724  d :     0.076497
      dxz     :     0.020801
      dyz     :     0.007927
      dx2y2   :     0.015976
      dxy     :     0.014069

  1 C s       :     1.140405  s :     1.140405
      pz      :     1.033819  p :     2.728307
      px      :     0.949856
      py      :     0.744633
      dz2     :     0.012661  d :     0.131216
      dxz     :     0.012071
      dyz     :     0.027332
      dx2y2   :     0.032101
      dxy     :     0.047051

  2 O s       :     1.607398  s :     1.607398
      pz      :     1.769209  p :     4.573918
      px      :     1.530218
      py      :     1.274491
      dz2     :     0.004915  d :     0.034719
      dxz     :     0.002616
      dyz     :     0.006782
      dx2y2   :     0.007901
      dxy     :     0.012504

  3 H s       :     0.916080  s :     0.916080
      pz      :     0.023053  p :     0.044590
      px      :     0.011331
      py      :     0.010206

  4 H s       :     0.907685  s :     0.907685
      pz      :     0.012335  p :     0.045208
      px      :     0.010922
      py      :     0.021951

  5 H s       :     0.918152  s :     0.918152
      pz      :     0.013626  p :     0.044735
      px      :     0.016974
      py      :     0.014135

  6 H s       :     0.924778  s :     0.924778
      pz      :     0.017117  p :     0.047553
      px      :     0.019047
      py      :     0.011389

  7 H s       :     0.742637  s :     0.742637
      pz      :     0.035300  p :     0.104485
      px      :     0.039309
      py      :     0.029877


SPIN
  0 C s       :    -0.013546  s :    -0.013546
      pz      :    -0.026277  p :    -0.056579
      px      :    -0.024650
      py      :    -0.005652
      dz2     :     0.004722  d :     0.019844
      dxz     :     0.013739
      dyz     :     0.000489
      dx2y2   :     0.000414
      dxy     :     0.000479

  1 C s       :     0.098575  s :     0.098575
      pz      :     0.749663  p :     0.793755
      px      :     0.022802
      py      :     0.021290
      dz2     :    -0.000498  d :    -0.000147
      dxz     :    -0.000497
      dyz     :     0.001030
      dx2y2   :    -0.000148
      dxy     :    -0.000034

  2 O s       :    -0.000299  s :    -0.000299
      pz      :     0.108136  p :     0.095246
      px      :    -0.000006
      py      :    -0.012884
      dz2     :     0.000541  d :     0.003144
      dxz     :    -0.000259
      dyz     :     0.002688
      dx2y2   :     0.000126
      dxy     :     0.000047

  3 H s       :     0.062137  s :     0.062137
      pz      :    -0.000467  p :    -0.000305
      px      :     0.000074
      py      :     0.000088

  4 H s       :     0.002121  s :     0.002121
      pz      :    -0.000179  p :    -0.000563
      px      :    -0.000347
      py      :    -0.000036

  5 H s       :     0.013137  s :     0.013137
      pz      :    -0.000237  p :    -0.000821
      px      :    -0.000567
      py      :    -0.000016

  6 H s       :    -0.026957  s :    -0.026957
      pz      :     0.013142  p :     0.013855
      px      :     0.000350
      py      :     0.000363

  7 H s       :    -0.004483  s :    -0.004483
      pz      :     0.002178  p :     0.001885
      px      :    -0.000168
      py      :    -0.000125



                     *******************************
                     * LOEWDIN POPULATION ANALYSIS *
                     *******************************

-------------------------------------------
LOEWDIN ATOMIC CHARGES AND SPIN POPULATIONS
-------------------------------------------
   0 C :   -0.143449    0.038961
   1 C :   -0.034966    0.716361
   2 O :   -0.029963    0.140410
   3 H :    0.042309    0.045007
   4 H :    0.057498   -0.000247
   5 H :    0.045154    0.012090
   6 H :    0.020388    0.041365
   7 H :    0.043030    0.006053

----------------------------------------------------
LOEWDIN REDUCED ORBITAL CHARGES AND SPIN POPULATIONS
----------------------------------------------------
CHARGE
  0 C s       :     0.771066  s :     0.771066
      pz      :     1.062558  p :     3.120624
      px      :     0.999456
      py      :     1.058610
      dz2     :     0.058272  d :     0.251759
      dxz     :     0.064868
      dyz     :     0.024696
      dx2y2   :     0.054970
      dxy     :     0.048954

  1 C s       :     0.833245  s :     0.833245
      pz      :     0.962269  p :     2.807476
      px      :     1.024852
      py      :     0.820355
      dz2     :     0.041285  d :     0.394245
      dxz     :     0.037290
      dyz     :     0.071980
      dx2y2   :     0.093807
      dxy     :     0.149882

  2 O s       :     1.357332  s :     1.357332
      pz      :     1.675291  p :     4.584964
      px      :     1.567191
      py      :     1.342482
      dz2     :     0.011775  d :     0.087667
      dxz     :     0.002301
      dyz     :     0.019629
      dx2y2   :     0.018612
      dxy     :     0.035349

  3 H s       :     0.802265  s :     0.802265
      pz      :     0.068420  p :     0.155426
      px      :     0.044606
      py      :     0.042400

  4 H s       :     0.791801  s :     0.791801
      pz      :     0.046167  p :     0.150700
      px      :     0.040787
      py      :     0.063745

  5 H s       :     0.801941  s :     0.801941
      pz      :     0.048783  p :     0.152905
      px      :     0.054322
      py      :     0.049800

  6 H s       :     0.819711  s :     0.819711
      pz      :     0.060986  p :     0.159901
      px      :     0.059388
      py      :     0.039527

  7 H s       :     0.635084  s :     0.635084
      pz      :     0.099921  p :     0.321887
      px      :     0.139407
      py      :     0.082558


SPIN
  0 C s       :    -0.001935  s :    -0.001935
      pz      :    -0.006804  p :    -0.019392
      px      :    -0.010314
      py      :    -0.002273
      dz2     :     0.013268  d :     0.060288
      dxz     :     0.041287
      dyz     :     0.001707
      dx2y2   :     0.001603
      dxy     :     0.002423

  1 C s       :     0.040827  s :     0.040827
      pz      :     0.634279  p :     0.665167
      px      :     0.014362
      py      :     0.016526
      dz2     :     0.008103  d :     0.010367
      dxz     :    -0.000940
      dyz     :     0.005175
      dx2y2   :    -0.000667
      dxy     :    -0.001304

  2 O s       :     0.003232  s :     0.003232
      pz      :     0.124549  p :     0.120067
      px      :     0.000698
      py      :    -0.005181
      dz2     :     0.002572  d :     0.017111
      dxz     :     0.000497
      dyz     :     0.012961
      dx2y2   :     0.000796
      dxy     :     0.000285

  3 H s       :     0.039757  s :     0.039757
      pz      :     0.002460  p :     0.005250
      px      :     0.002755
      py      :     0.000036

  4 H s       :     0.001911  s :     0.001911
      pz      :    -0.000783  p :    -0.002157
      px      :    -0.001058
      py      :    -0.000317

  5 H s       :     0.013262  s :     0.013262
      pz      :    -0.000232  p :    -0.001172
      px      :    -0.000764
      py      :    -0.000176

  6 H s       :    -0.012691  s :    -0.012691
      pz      :     0.049139  p :     0.054056
      px      :     0.002696
      py      :     0.002221

  7 H s       :    -0.002152  s :    -0.002152
      pz      :     0.008186  p :     0.008204
      px      :     0.000158
      py      :    -0.000140



                      *****************************
                      * MAYER POPULATION ANALYSIS *
                      *****************************

  NA   - Mulliken gross atomic population
  ZA   - Total nuclear charge
  QA   - Mulliken gross atomic charge
  VA   - Mayer's total valence
  BVA  - Mayer's bonded valence
  FA   - Mayer's free valence

  ATOM       NA         ZA         QA         VA         BVA        FA
  0 C      4.0881     4.0000    -0.0881     3.9834     3.9805     0.0029
  1 C      3.9999     4.0000     0.0001     3.9128     3.2405     0.6723
  2 O      6.2160     6.0000    -0.2160     2.1659     2.1473     0.0187
  3 H      0.9607     1.0000     0.0393     1.0324     1.0281     0.0043
  4 H      0.9529     1.0000     0.0471     1.0403     1.0402     0.0000
  5 H      0.9629     1.0000     0.0371     1.0290     1.0288     0.0003
  6 H      0.9723     1.0000     0.0277     1.0525     1.0512     0.0013
  7 H      0.8471     1.0000     0.1529     1.0995     1.0994     0.0000

  Mayer bond orders larger than 0.100000
B(  0-C ,  1-C ) :   1.0457 B(  0-C ,  3-H ) :   0.9683 B(  0-C ,  4-H ) :   0.9894 
B(  0-C ,  5-H ) :   0.9816 B(  1-C ,  2-O ) :   1.0832 B(  1-C ,  6-H ) :   1.0320 
B(  2-O ,  7-H ) :   1.0543 

-------
TIMINGS
-------

Total SCF time: 0 days 0 hours 0 min 29 sec 

Total time                  ....      29.661 sec
Sum of individual times     ....      29.647 sec  (100.0%)

SCF preparation             ....       0.080 sec  (  0.3%)
Fock matrix formation       ....      29.007 sec  ( 97.8%)
  Startup                   ....       0.002 sec  (  0.0% of F)
  Split-RI-J                ....       0.908 sec  (  3.1% of F)
  Chain of spheres X        ....      23.493 sec  ( 81.0% of F)
  XC integration            ....       3.531 sec  ( 12.2% of F)
    Basis function eval.    ....       1.008 sec  ( 28.5% of XC)
    Density eval.           ....       0.659 sec  ( 18.7% of XC)
    XC-Functional eval.     ....       0.749 sec  ( 21.2% of XC)
    XC-Potential eval.      ....       0.990 sec  ( 28.0% of XC)
Diagonalization             ....       0.000 sec  (  0.0%)
Density matrix formation    ....       0.013 sec  (  0.0%)
Total Energy calculation    ....       0.002 sec  (  0.0%)
Population analysis         ....       0.003 sec  (  0.0%)
Orbital Transformation      ....       0.005 sec  (  0.0%)
Orbital Orthonormalization  ....       0.000 sec  (  0.0%)
DIIS solution               ....       0.531 sec  (  1.8%)
SOSCF solution              ....       0.007 sec  (  0.0%)
Finished LeanSCF after  29.7 sec

Maximum memory used throughout the entire LEANSCF-calculation: 10.1 MB


-------------------------------------------------------------------------------
                          DFT DISPERSION CORRECTION                            
                                                                               
                                DFTD4 V3.4.0                                   
-------------------------------------------------------------------------------
The wB97X-3c composite method is recognized
Using three-body term ABC
Active option DFTDOPT                   ...         5   

-------------------------   ----------------
Dispersion correction           -0.004102250
-------------------------   ----------------


-------------------------   --------------------
FINAL SINGLE POINT ENERGY       -30.406626575264
-------------------------   --------------------


------------------------------------------------------------------------------
                              ORCA PROPERTY CALCULATIONS
------------------------------------------------------------------------------

GBWName                                 ... orca.gbw
Number of atoms                         ...      8
Number of basis functions               ...     64
Max core memory                         ...   8000 MB

Electric properties:
Dipole moment                           ... YES
Quadrupole moment                       ...  NO
Static polarizability (Dipole/Dipole)   ...  NO
Static polarizability (Dipole/Quad.)    ...  NO
Static polarizability (Quad./Quad.)     ...  NO
Static polarizability (Velocity)        ...  NO

Atomic electric properties:
Dipole moment                           ...  NO
Quadrupole moment                       ...  NO
Static polarizability                   ...  NO

Choice of electric origin               ... Center of mass
Position of electric origin             ...    -2.214923    -4.574589     0.011852

General magnetic properties:
Magnetizability                         ...  NO

EPR properties:
g-Tensor (aka g-matrix)                 ...  NO
Zero-Field splitting spin-orbit         ...  NO
Zero-field splitting spin-spin          ...  NO
Hyperfine couplings                     ...  NO (   0 nuclei)
Quadrupole couplings                    ...  NO (   0 nuclei)
Contact density                         ...  NO (   0 nuclei)

NMR properties:
Chemical shifts                         ...  NO (   0 nuclei)
Spin-rotation constants                 ...  NO (   0 nuclei)
Spin-spin couplings                     ...  NO (   0 nuclei,    0 pairs)

Choice of magnetic origin               ... GIAO
Position of magnetic origin             ...     0.000000     0.000000     0.000000

Properties with geometric perturbations:
SCF Hessian                             ...  NO
IR spectrum                             ...  NO
VCD spectrum                            ...  NO
X-ray spectroscopy properties:
SCF XES/XAS/RIXS spectra                ...  NO


-------------
DIPOLE MOMENT
-------------

Method             : SCF
Type of density    : Electron Density
Multiplicity       :   2
Irrep              :   0
Energy             :   -30.4025243255944488 Eh
Relativity type    : 
Basis              : AO
                                X                 Y                 Z
Electronic contribution:      2.263631479       1.506616885       0.409817540
Nuclear contribution   :     -2.939322461      -1.588185497      -0.481853846
                        -----------------------------------------
Total Dipole Moment    :     -0.675690982      -0.081568612      -0.072036307
                        -----------------------------------------
Magnitude (a.u.)       :      0.684398255
Magnitude (Debye)      :      1.739602115



--------------------
Rotational spectrum 
--------------------
 
Rotational constants in cm-1:             1.484168             0.319435             0.278625 
Rotational constants in MHz :         44494.226005          9576.421880          8352.955600 

Dipole components along the rotational axes: 
x,y,z [a.u.] :    -0.517252     0.447269     0.028311 
x,y,z [Debye]:    -1.314750     1.136868     0.071961 

 

Dipole moment calculation done in   0.0 sec 

Maximum memory used throughout the entire PROP-calculation: 5.6 MB

--------------------------------
SUGGESTED CITATIONS FOR THIS RUN
--------------------------------

Below you find a list of papers that are relevant to this ORCA run
We neither can nor want to force you to cite these papers, but we appreciate if you do
You receive ORCA, which is the product of decades of hard work by many enthusiastic individuals, for free
The only thing we kindly ask in return is that you cite our papers,
We deeply appreciate it, if you show your appreciation for ORCA by not just citing the generic ORCA reference.

Please note that relegating all ORCA citations to the supporting information does *not* help us.
SI sections are not indexed - citations you put there will not count into any citation statistics
But we need these citations in order to attract the funding resources that allow us to do what we are doing

Therefore, if you are a happy ORCA user, please consider citing a few of the papers listed below in the main body of your paper

In addition to the list printed below, the program has created the file orca.bibtex that contains the list in bibtex format
You can import this file easily into all common literature databanks and citation aid programs


List of essential papers. We consider these as the minimum necessary citations

  1. Neese,F.
     Software update: the ORCA program system, version 5.0
     WIRES Comput. Molec. Sci., 2022 12(1)e1606
     doi.org/10.1002/wcms.1606
  2. Mueller,M.; Hansen,A.; Grimme,S.
     wB97X-3c: A composite range-separated hybrid DFT method with a molecule-optimized polarized valence double-zeta basis set
     J. Chem. Phys., 2023 158 014103
     doi.org/10.1063/5.0133026

List of papers to cite with high priority. The work reported in these papers was absolutely
necessary for this run to complete.
Our perspective: the developers of density functionals and basis sets usually get cited in chemistry papers
Good! But without the algorithms to do something with them, the functionals or basis sets would not do anything.
Hence, in our opinion, the algorithm design and method developments papers are equally worthy of getting cited

  1. Neese,F.
     An improvement of the resolution of the identity approximation for the formation of the Coulomb matrix
     J. Comp. Chem., 2003 24(14)1740-1747
     doi.org/10.1002/jcc.10318
  2. Neese,F.; Wennmohs,F.; Hansen,A.; Becker,U.
     Efficient, approximate and parallel Hartree-Fock and hybrid DFT calculations. A 'chain-of-spheres' algorithm for the Hartree-Fock exchange
     Chem. Phys., 2009 356(1-3)98-109
     doi.org/10.1016/j.chemphys.2008.10.036
  3. Helmich-Paris,B.; de Souza,B.; Neese,F.; Izsák,R.
     An improved chain of spheres for exchange algorithm
     J. Chem. Phys., 2021 155 104109
     doi.org/doi: 10.1063/5.0058766.
  4. Neese,F.
     The SHARK Integral Generation and Digestion System
     J. Comp. Chem., 2022  1-16
     doi.org/10.1002/jcc.26942
  5. Caldeweyher,E.; Bannwarth,C.; Grimme,S.
     Extension of the D3 dispersion coefficient model
     J. Chem. Phys., 2017 147 034112
     doi.org/10.1063/1.4993215
  6. Caldeweyher,E.; Ehlert,S.; Hansen,A.; Neugebauer,H.; Spicher,S.; Bannwarth,C.; Grimme,S.
     A generally applicable atomic-charge dependent London dispersion correction
     J. Chem. Phys., 2019 150 154122
     doi.org/10.1063/1.5090222
  7. Caldeweyher,E.; Mewes,J.; Ehlert,S.; Grimme,S.
     Extension and evaluation of the D4 London-dispersion model for periodic systems
     Phys. Chem. Chem. Phys., 2020 22(16)8499-8512
     doi.org/10.1039/D0CP00502A
  8. Wittmann,L.; Gordiy,I.; Friede,M.; Helmich-Paris,B.; Grimme,S.; Hansen,A.; Bursch,M.
     Extension of the D3 and D4 London Dispersion Corrections to the full Actinides Series
     Phys. Chem. Chem. Phys., 2024 26(32)21379-21394
     doi.org/https://doi.org/10.1039/D4CP01514B 

List of suggested additional citations. These are papers that are important in the 'surrounding' of 
of this run, or papers that preceded the highly important papers. If you like your results we are grateful for a citation.

  1. Izsak,R.; Neese,F.
     An overlap fitted chain of spheres exchange method
     J. Chem. Phys., 2011 135 144105
     doi.org/10.1063/1.3646921
  2. Izsak,R.; Hansen,A.; Neese,F.
     The resolution of identity and chain of spheres approximations for the LPNO-CCSD singles Fock term
     Molec. Phys., 2012 110 2413-2417
     doi.org/10.1080/00268976.2012.687466
  3. Neese,F.
     The ORCA program system
     WIRES Comput. Molec. Sci., 2012 2(1)73-78
     doi.org/10.1002/wcms.81
  4. Izsak,R.; Neese,F.; Klopper,W.
     Robust fitting techniques in the chain of spheres approximation to the Fock exchange: The role of the complementary space
     J. Chem. Phys., 2013 139 
     doi.org/10.1063/1.4819264
  5. Neese,F.
     Software update: the ORCA program system, version 4.0
     WIRES Comput. Molec. Sci., 2018 8(1)1-6
     doi.org/10.1002/wcms.1327
  6. Neese,F.; Wennmohs,F.; Becker,U.; Riplinger,C.
     The ORCA quantum chemistry program package
     J. Chem. Phys., 2020 152 Art. No. L224108
     doi.org/10.1063/5.0004608

List of optional additional citations

  1. Neese,F.
     Approximate second-order SCF convergence for spin unrestricted wavefunctions
     Chem. Phys. Lett., 2000 325(1-3)93-98
     doi.org/10.1016/s0009-2614(00)00662-x

Timings for individual modules:

Sum of individual times          ...       31.683 sec (=   0.528 min)
Startup calculation              ...        0.659 sec (=   0.011 min)   2.1 %
SCF iterations                   ...       30.937 sec (=   0.516 min)  97.6 %
Property calculations            ...        0.088 sec (=   0.001 min)   0.3 %
                             ****ORCA TERMINATED NORMALLY****
TOTAL RUN TIME: 0 days 0 hours 0 minutes 31 seconds 841 msec
