
                                 *****************
                                 * O   R   C   A *
                                 *****************

                                            #,                                       
                                            ###                                      
                                            ####                                     
                                            #####                                    
                                            ######                                   
                                           ########,                                 
                                     ,,################,,,,,                         
                               ,,#################################,,                 
                          ,,##########################################,,             
                       ,#########################################, ''#####,          
                    ,#############################################,,   '####,        
                  ,##################################################,,,,####,       
                ,###########''''           ''''###############################       
              ,#####''   ,,,,##########,,,,          '''####'''          '####       
            ,##' ,,,,###########################,,,                        '##       
           ' ,,###''''                  '''############,,,                           
         ,,##''                                '''############,,,,        ,,,,,,###''
      ,#''                                            '''#######################'''  
     '                                                          ''''####''''         
             ,#######,   #######,   ,#######,      ##                                
            ,#'     '#,  ##    ##  ,#'     '#,    #''#        ,####,   ,####,        
            ##       ##  ##   ,#'  ##            #'  '#       #'       #'  '#        
            ##       ##  #######   ##           ,######,      #####,   #    #        
            '#,     ,#'  ##    ##  '#,     ,#' ,#      #,     #,   #   #,  ,#        
             '#######'   ##     ##  '#######'  #'      '#     '####' # '####'        



                #########################################################
                #                        -***-                          #
                #          Department of theory and spectroscopy        #
                #                                                       #
                #                      Frank Neese                      #
                #                                                       #
                #     Directorship, Architecture, Infrastructure        #
                #                    SHARK, DRIVERS                     #
                #        Core code/Algorithms in most modules           #
                #                                                       #
                #        Max Planck Institute fuer Kohlenforschung      #
                #                Kaiser Wilhelm Platz 1                 #
                #                 D-45470 Muelheim/Ruhr                 #
                #                      Germany                          #
                #                                                       #
                #                  All rights reserved                  #
                #                        -***-                          #
                #########################################################


                         Program Version 6.0.1  -  RELEASE   -


 With contributions from (in alphabetic order):
[Max-Planck-Institut fuer Kohlenforschung]                               
  Daniel Aravena         : Magnetic Suceptibility                        
  Michael Atanasov       : Ab Initio Ligand Field Theory (pilot matlab implementation)
  Alexander A. Auer      : GIAO ZORA, VPT2 properties, NMR spectrum      
  Ute Becker             : All parallelization in ORCA, NUMFREQ, NUMCALC 
  Giovanni Bistoni       : ED, misc. LED, open-shell LED, HFLD           
  Martin Brehm           : Molecular dynamics                            
  Dmytro Bykov           : pre 5.0 version of the SCF Hessian            
  Marcos Casanova-Páez   : Triplet and SCS-CIS(D). UHF-(DLPNO)-IP/EA/STEOM-CCSD. UHF-CVS-IP/STEOM-CCSD   
  Vijay G. Chilkuri      : MRCI spin determinant printing, contributions to CSF-ICE 
  Pauline Colinet        : FMM embedding                                 
  Dipayan Datta          : RHF DLPNO-CCSD density                        
  Achintya Kumar Dutta   : EOM-CC, STEOM-CC                              
  Nicolas Foglia         : Exact transition moments, OPA infrastructure, MCD improvements    
  Dmitry Ganyushin       : Spin-Orbit,Spin-Spin,Magnetic field MRCI      
  Miquel Garcia-Rates    : C-PCM and meta-GGA Hessian, CCSD/C-PCM, Gaussian charge scheme 
  Tiago L. C. Gouveia    : GS-ROHF, GS-ROCIS                             
  Yang Guo               : DLPNO-NEVPT2, F12-NEVPT2, CIM, IAO-localization        
  Andreas Hansen         : Spin unrestricted coupled pair/coupled cluster methods 
  Ingolf Harden          : AUTO-CI MPn and infrastructure                
  Benjamin Helmich-Paris : MC-RPA, TRAH-(SCF,CASSCF), AVAS, COSX integrals, SCF dyn. polar. 
  Lee Huntington         : MR-EOM, pCC                                   
  Robert Izsak           : Overlap fitted RIJCOSX, COSX-SCS-MP3, EOM     
  Riya Kayal             : Wick's Theorem for AUTO-CI, AUTO-CI UHF-CCSDT 
  Emily Kempfer          : AUTO-CI, RHF CISDT and CCSDT                  
  Christian Kollmar      : KDIIS, OOCD, Brueckner-CCSD(T), CCSD density, CASPT2, CASPT2-K, improved NEVPT2 
  Axel Koslowski         : Symmetry handling                             
  Simone Kossmann        : meta-GGA functionals, TD-DFT gradient, OOMP2, (MP2 Hessian; deprecated post 5.0) 
  Lucas Lang             : DCDCAS                                        
  Marvin Lechner         : AUTO-CI (C++ implementation), FIC-MRCC        
  Spencer Leger          : CASSCF response                               
  Dagmar Lenk            : GEPOL surface, SMD, ORCA-2-JSON               
  Dimitrios Liakos       : Extrapolation schemes; Compound Job, initial MDCI parallelization 
  Dimitrios Manganas     : Further ROCIS development; embedding schemes. LFT, Crystal Embedding 
  Dimitrios Pantazis     : SARC Basis sets                               
  Anastasios Papadopoulos: AUTO-CI, single reference methods and gradients 
  Taras Petrenko         : pre 6.0 DFT Hessian and TD-DFT gradient, (ASA, deprecated), ECA, 1-Electron XAS/XES, NRVS 
  Peter Pinski           : DLPNO-MP2, DLPNO-MP2 Gradient                 
  Christoph Reimann      : Effective Core Potentials                     
  Marius Retegan         : Local ZFS, SOC                                
  Christoph Riplinger    : Optimizer, TS searches, QM/MM, DLPNO-CCSD(T), (RO)-DLPNO pert. Triples 
  Michael Roemelt        : Original ROCIS implementation                 
  Masaaki Saitow         : Open-shell DLPNO-CCSD energy and density      
  Barbara Sandhoefer     : DKH picture change effects                    
  Kantharuban Sivalingam : CASSCF convergence/infrastructure, NEVPT2 and variants, FIC-MRCI 
  Bernardo de Souza      : ESD, SOC TD-DFT                               
  Georgi L. Stoychev     : AutoAux, RI-MP2 NMR, DLPNO-MP2 response, X2C  
  Van Anh Tran           : RI-MP2 g-tensors                              
  Willem Van den Heuvel  : Paramagnetic NMR                              
  Zikuan Wang            : NOTCH, Electric field optimization            
  Frank Wennmohs         : Technical directorship and infrastructure     
  Hang Xu                : AUTO-CI-Response properties                   
                                                                         
[FACCTs GmbH]                                                            
  Markus Bursch, Miquel Garcia-Rates, Christoph Riplinger, Bernardo de Souza, Georgi L. Stoychev 
                                                                 
  APM, Basis sets (HGBS, AHGBS, def-TZVP (Ac-Lr), def2-XVPD (La-Lu)), CI-OPT, improved COSX, DLPNO-Multilevel,           
  DOCKER, DRACO, updates on ESD, GOAT, IRC, LR-CPCM, MBIS, meta-GGA TD-DFT gradient, ML-optimized integration grids, 
  MM, NACMEs, nearIR, NEB, NEB-TS, NL-DFT gradient (VV10), 2- and 3-layer-ONIOM, interface openCOSMO-RS, QMMM,   
  Crystal-QMMM, SF, symmetry and pop. for TD-DFT, r2SCAN hybrids, SOLVATOR                                   
                                                                         
[Other institutions]                                                     
  V. Asgeirsson          : NEB                                           
  Christoph Bannwarth    : sTDA-DFT, sTD-DFT, PBEh-3c, B97-3c, D3        
  Sebastian Ehlert       : rSCAN, r2SCAN, r2SCAN-3c, D4, dhf basis sets  
  Marvin Friede          : D4 for Fr, Ra, Ac-Lr                          
  Lars Goerigk           : TD-DFT with DH, B97 family of functionals     
  Stefan Grimme          : VdW corrections, initial TS optimization, DFT functionals, gCP, sTDA/sTD-DF 
  Waldemar Hujo          : DFT-NL                                        
  H. Jonsson             : NEB                                           
  Holger Kruse           : gCP                                           
  Marcel Mueller         : wB97X-3c, vDZP basis set                      
  Hagen Neugebauer       : wr2SCAN                                       
  Tobias Risthaus        : range-separated hybrid DFT                    
  Lukas Wittmann         : regularized MP2, r2SCAN double-hybrids, wr2SCAN        
                                                                         
We gratefully acknowledge several colleagues who have allowed us to      
interface, adapt or use parts of their codes:                            
  Ed Valeev, F. Pavosevic, A. Kumar             : LibInt (2-el integral package), F12 methods 
  Garnet Chan, S. Sharma, J. Yang, R. Olivares  : DMRG                   
  Ulf Ekstrom                                   : XCFun DFT Library      
  Mihaly Kallay                                 : mrcc  (arbitrary order and MRCC methods)
  Frank Weinhold                                : gennbo (NPA and NBO analysis)           
  Simon Mueller                                 : openCOSMO-RS                            
  Christopher J. Cramer and Donald G. Truhlar   : smd solvation model                     
  S Lehtola, MJT Oliveira, MAL Marques          : LibXC Library                           
  Liviu Ungur et al                             : ANISO software                          


 Your calculation uses the libint2 library for the computation of 2-el integrals
 For citations please refer to: http://libint.valeyev.net

 Your ORCA version has been built with support for libXC version: 6.2.2
 For citations please refer to: https://libxc.gitlab.io

 This ORCA versions uses:
   CBLAS   interface :  Fast vector & matrix operations
   LAPACKE interface :  Fast linear algebra routines
   SCALAPACK package :  Parallel linear algebra routines
   Shared memory     :  Shared parallel matrices
   BLAS/LAPACK       :  OpenBLAS 0.3.27  USE64BITINT DYNAMIC_ARCH NO_AFFINITY Haswell SINGLE_THREADED
        Core in use  :  Haswell
   Copyright (c) 2011-2014, The OpenBLAS Project


NOTE: MaxCore=8000 MB was set to SCF,MP2,MDCI,CIPSI,MRCI and CIS
      => If you want to overwrite this, your respective input block should be placed after the MaxCore statement


***************************************
The coordinates will be read from file: fragment.xyz
***************************************


Your calculation utilizes the atom-pairwise dispersion correction
based on EEQ partial charges (D4)


================================================================================

cite the ECPs for C  [vDZP-ECP], O  [vDZP-ECP] as follows:
   B-Ne (ecp-2-mwb), Al-Ar (ecp-10-mwb), Ga-Kr (ecp-28-mwb), Y-Cd (ecp-28-mwb), In-Xe (ecp-46-mwb):
     A. Bergner, M. Dolg, W. Küchle, H. Stoll, and H. Preuß, Mol. Phys. 80, 1431 (1993)., T. Leininger, A. Berning, A. Nicklass, H. Stoll, H.-J. Werner, and H.-J.Flad, Chem. Phys. 217, 19 (1997).
   Na-Mg, K-Ca, Rb-Sr, Cs-Ba (CRENBL):
     L. Fernandez Pacios and P. A. Christiansen, J. Chem. Phys. 82, 2664 (1985)., M. M. Hurley, L. F. Pacios, P. A. Christiansen, R. B. Ross, and W. C. Ermler, J. Chem. Phys. 84, 6840 (1986)., L. A. LaJohn, P. A. Christiansen, R. B. Ross, T. Atashroo, and W. C. Ermler, J. Chem. Phys. 87, 2812 (1987)., R. B. Ross, J. M. Powers, T. Atashroo, W. C. Ermler, L. A. LaJohn, and P. A. Christiansen, J. Chem. Phys. 93, 6654 (1990). 
   Sc-Zn (ecp-10-mdf):
     M. Dolg, U. Wedig, H. Stoll, and H. Preuss, J. Chem. Phys. 86, 866 (1986). 
   Y-Cd (ecp-28-mwb), Hf-Hg (ecp-60-mwb):
     D. Andrae, U. Häußermann, M. Dolg, H. Stoll, and H. Preuß, Theor. Chim. Acta 77, 123 (1990). 
   La (ecp-46-mwb):
     M. Dolg, H. Stoll, and H. Preuss, J. Chem. Phys. 90, 1730 (1989)., M. Dolg, H. Stoll, and H. Preuss, Theor. Chim. Acta 85, 441 (1993).
   Ce-Lu (SBKJC-ecp):
     T. R. Cundari and W. J. Stevens, J. Chem. Phys. 98, 5555 (1993).
   Tl-Rn (ecp-78-mwb):
     W. Küchle, M. Dolg, H. Stoll, and H. Preuss, Mol. Phys. 74, 1245 (1991).

ECP parameters for C  [vDZP-ECP], O  [vDZP-ECP] have been obtained from:
MM, AH, SG, J. Chem. Phys. 158, 014103 (2023), 10.1063/5.0133026

----- Orbital basis set information -----
Your calculation utilizes the basis: vDZP
   Marcel Mueller, Andreas Hansen, Stefan Grimme 
   J. Chem. Phys. 158, 014103 (2023). DOI: 10.1063/5.0133026

----- AuxJ basis set information -----
Your calculation utilizes the auxiliary basis: def2/J
   F. Weigend, Phys. Chem. Chem. Phys. 8, 1057 (2006).

================================================================================
                                        WARNINGS
                       Please study these warnings very carefully!
================================================================================

WARNING: Frozen-Core approximation turned on, but there are no core electrons.
  ===> : Turning off frozen-core approximation

WARNING: Old DensityContainer found on disk!
         Will remove this file - 
         If you want to keep old densities, please start your calculation with a different basename. 


WARNING: your system is open-shell and RHF/RKS was chosen
  ===> : WILL SWITCH to UHF/UKS


================================================================================
                                       INPUT FILE
================================================================================
NAME = orca.inp
|  1>  ! DEFGRID2 
|  2>  ! wB97X-3c
|  3>  ! SP
|  4>  %pal
|  5> nprocs 1
|  6>  end
|  7>  %maxcore 8000
|  8>  *xyzfile            0             2  fragment.xyz
|  9> 
| 10>                          ****END OF INPUT****
================================================================================

                       ****************************
                       * Single Point Calculation *
                       ****************************

---------------------------------
CARTESIAN COORDINATES (ANGSTROEM)
---------------------------------
  C     -0.741259   -0.881019    0.038950
  C      0.787405   -0.888239    0.032228
  C      0.033083    1.228662    0.032608
  O      1.163255    0.476357    0.045049
  O     -1.104115    0.486802    0.012654
  H     -1.154436   -1.338124    0.936978
  H     -1.162850   -1.372350   -0.836354
  H      1.196628   -1.357462   -0.861256
  H      1.204246   -1.375690    0.912070
  H      0.037239    2.298247    0.036431

----------------------------
CARTESIAN COORDINATES (A.U.)
----------------------------
  NO LB      ZA    FRAG     MASS         X           Y           Z
   0 C     4.0000*   0    12.011   -1.400777   -1.664885    0.073604
   1 C     4.0000*   0    12.011    1.487980   -1.678529    0.060901
   2 C     4.0000*   0    12.011    0.062519    2.321834    0.061621
   3 O     6.0000*   0    15.999    2.198234    0.900184    0.085129
   4 O     6.0000*   0    15.999   -2.086474    0.919922    0.023912
   5 H     1.0000    0     1.008   -2.181568   -2.528688    1.770631
   6 H     1.0000    0     1.008   -2.197468   -2.593365   -1.580480
   7 H     1.0000    0     1.008    2.261299   -2.565231   -1.627538
   8 H     1.0000    0     1.008    2.275695   -2.599676    1.723562
   9 H     1.0000    0     1.008    0.070371    4.343058    0.068844
* core charge reduced due to ECP

--------------------------------
INTERNAL COORDINATES (ANGSTROEM)
--------------------------------
 C      0   0   0     0.000000000000     0.00000000     0.00000000
 C      1   0   0     1.528696143542     0.00000000     0.00000000
 C      2   1   0     2.247280977255    70.11688407     0.00000000
 O      3   2   1     1.357720883347    36.74078933   178.84496450
 O      3   2   1     1.357929959526    76.49527050   358.87200808
 H      1   2   3     1.089088497246   112.39649283   242.79709566
 H      1   2   3     1.088715159117   112.43046522   119.27325641
 H      2   1   3     1.089011505677   112.42103294   242.42367969
 H      2   1   3     1.088800418608   112.42026473   118.91920234
 H      3   2   1     1.069600345722   160.16384724   179.15906885

---------------------------
INTERNAL COORDINATES (A.U.)
---------------------------
 C      0   0   0     0.000000000000     0.00000000     0.00000000
 C      1   0   0     2.888817053277     0.00000000     0.00000000
 C      2   1   0     4.246745592982    70.11688407     0.00000000
 O      3   2   1     2.565720635832    36.74078933   178.84496450
 O      3   2   1     2.566115732552    76.49527050   358.87200808
 H      1   2   3     2.058078995398   112.39649283   242.79709566
 H      1   2   3     2.057373488580   112.43046522   119.27325641
 H      2   1   3     2.057933502418   112.42103294   242.42367969
 H      2   1   3     2.057534605668   112.42026473   118.91920234
 H      3   2   1     2.021251726162   160.16384724   179.15906885

---------------------
BASIS SET INFORMATION
---------------------
There are 3 groups of distinct atoms

 Group   1 Type C   : 6s6p2d contracted to 2s2p1d pattern {42/42/2}
 Group   2 Type O   : 6s6p2d contracted to 2s2p1d pattern {42/42/2}
 Group   3 Type H   : 8s2p contracted to 2s1p pattern {53/2}

Atom   0C    basis set group =>   1
Atom   1C    basis set group =>   1
Atom   2C    basis set group =>   1
Atom   3O    basis set group =>   2
Atom   4O    basis set group =>   2
Atom   5H    basis set group =>   3
Atom   6H    basis set group =>   3
Atom   7H    basis set group =>   3
Atom   8H    basis set group =>   3
Atom   9H    basis set group =>   3
---------------------------------
AUXILIARY/J BASIS SET INFORMATION
---------------------------------
There are 3 groups of distinct atoms

 Group   1 Type C   : 12s5p4d2f1g contracted to 6s4p3d1f1g pattern {711111/2111/211/2/1}
 Group   2 Type O   : 12s5p4d2f1g contracted to 6s4p3d1f1g pattern {711111/2111/211/2/1}
 Group   3 Type H   : 5s2p1d contracted to 3s1p1d pattern {311/2/1}

Atom   0C    basis set group =>   1
Atom   1C    basis set group =>   1
Atom   2C    basis set group =>   1
Atom   3O    basis set group =>   2
Atom   4O    basis set group =>   2
Atom   5H    basis set group =>   3
Atom   6H    basis set group =>   3
Atom   7H    basis set group =>   3
Atom   8H    basis set group =>   3
Atom   9H    basis set group =>   3
-------------------------
ECP PARAMETER INFORMATION
-------------------------

 Group 1, Type C  ECP vDZP-ECP (replacing 2 core electrons, lmax=3)
 Group 2, Type O  ECP vDZP-ECP (replacing 2 core electrons, lmax=3)

Atom   0C    ECP group =>   1
Atom   1C    ECP group =>   1
Atom   2C    ECP group =>   1
Atom   3O    ECP group =>   2
Atom   4O    ECP group =>   2

------------------------------------------------------------------------------
                             ORCA STARTUP CALCULATIONS
                           -- RI-GTO INTEGRALS CHOSEN --
------------------------------------------------------------------------------
------------------------------------------------------------------------------
                   ___                                                        
                  /   \      - P O W E R E D   B Y -                         
                 /     \                                                     
                 |  |  |   _    _      __       _____    __    __             
                 |  |  |  | |  | |    /  \     |  _  \  |  |  /  |          
                  \  \/   | |  | |   /    \    | | | |  |  | /  /          
                 / \  \   | |__| |  /  /\  \   | |_| |  |  |/  /          
                |  |  |   |  __  | /  /__\  \  |    /   |      \           
                |  |  |   | |  | | |   __   |  |    \   |  |\   \          
                \     /   | |  | | |  |  |  |  | |\  \  |  | \   \       
                 \___/    |_|  |_| |__|  |__|  |_| \__\ |__|  \__/        
                                                                              
                      - O R C A' S   B I G   F R I E N D -                    
                                      &                                       
                       - I N T E G R A L  F E E D E R -                       
                                                                              
 v1 FN, 2020, v2 2021, v3 2022-2024                                           
------------------------------------------------------------------------------


----------------------
SHARK INTEGRAL PACKAGE
----------------------

Number of atoms                             ...     10
Number of basis functions                   ...     90
Number of shells                            ...     40
Maximum angular momentum                    ...      2
Integral batch strategy                     ... SHARK/LIBINT Hybrid
RI-J (if used) integral strategy            ... SPLIT-RIJ (Revised 2003 algorithm where possible)
Printlevel                                  ...      1
Contraction scheme used                     ... SEGMENTED contraction
Prescreening option                         ... SCHWARTZ
   Thresh                                   ... 1.000e-10
   Tcut                                     ... 1.000e-11
   Tpresel                                  ... 1.000e-11 
Coulomb Range Separation                    ... NOT USED
Exchange Range Separation                   ... Long Range
   Mu parameter                             ... 3.000e-01
   Scaling (regular/separated)              ... 1.670e-01 8.330e-01
Multipole approximations                    ... NOT USED
Finite Nucleus Model                        ... NOT USED
CABS basis                                  ... NOT available
Auxiliary Coulomb fitting basis             ... AVAILABLE
   # of basis functions in Aux-J            ...    300
   # of shells in Aux-J                     ...    100
   Maximum angular momentum in Aux-J        ...      4
Auxiliary J/K fitting basis                 ... NOT available
Auxiliary Correlation fitting basis         ... NOT available
Auxiliary 'external' fitting basis          ... NOT available

Checking pre-screening integrals            ... done (  0.0 sec) Dimension = 40
Check shell pair data                       ... done (  0.0 sec)
Shell pair information
Shell pair cut-off parameter TPreSel        ...   1.0e-11
Total number of shell pairs                 ...       820
Shell pairs after pre-screening             ...       820
Total number of primitive shell pairs       ...      7405
Primitive shell pairs kept                  ...      6848
          la=0 lb=0:    210 shell pairs
          la=1 lb=0:    300 shell pairs
          la=1 lb=1:    120 shell pairs
          la=2 lb=0:    100 shell pairs
          la=2 lb=1:     75 shell pairs
          la=2 lb=2:     15 shell pairs

Calculating one electron integrals          ... done (  0.0 sec)
Calculating ECP integrals                   ... done (  0.1 sec)
Calculating RI/J V-Matrix + Cholesky decomp.... done (  0.0 sec)
Calculating Nuclear repulsion               ... done (  0.0 sec) ENN=    101.972446287091 Eh

Diagonalization of the overlap matrix:
Smallest eigenvalue                        ... 2.166e-03
Time for diagonalization                   ...    0.001 sec
Threshold for overlap eigenvalues          ... 1.000e-07
Number of eigenvalues below threshold      ... 0
Time for construction of square roots      ...    0.000 sec
Total time needed                          ...    0.002 sec

-------------------
DFT GRID GENERATION
-------------------

General Integration Accuracy     IntAcc      ... 4.388
Radial Grid Type                 RadialGrid  ... OptM3 with GC (2021)
Angular Grid (max. ang.)         AngularGrid ... 4 (Lebedev-302)
Angular grid pruning method      GridPruning ... 4 (adaptive)
Weight generation scheme         WeightScheme... mBecke (2022)
Basis function cutoff            BFCut       ... 1.0000e-10
Integration weight cutoff        WCut        ... 1.0000e-14
Partially contracted basis set               ... off
Rotationally invariant grid construction     ... off
Angular grids for H and He will be reduced by one unit

Total number of grid points                  ...    46466
Total number of batches                      ...      731
Average number of points per batch           ...       63
Average number of grid points per atom       ...     4647

--------------------
COSX GRID GENERATION
--------------------

GRIDX 1
-------
General Integration Accuracy     IntAcc      ... 3.816
Radial Grid Type                 RadialGrid  ... OptM3 with GC (2021)
Angular Grid (max. ang.)         AngularGrid ... 1 (Lebedev-50)
Angular grid pruning method      GridPruning ... 4 (adaptive)
Weight generation scheme         WeightScheme... mBecke (2022)
Basis function cutoff            BFCut       ... 1.0000e-10
Integration weight cutoff        WCut        ... 1.0000e-14
Partially contracted basis set               ... on
Rotationally invariant grid construction     ... off
Angular grids for H and He will be reduced by one unit

Total number of grid points                  ...     5948
Total number of batches                      ...       54
Average number of points per batch           ...      110
Average number of grid points per atom       ...      595
UseSFitting                                  ... on

GRIDX 2
-------
General Integration Accuracy     IntAcc      ... 4.020
Radial Grid Type                 RadialGrid  ... OptM3 with GC (2021)
Angular Grid (max. ang.)         AngularGrid ... 2 (Lebedev-110)
Angular grid pruning method      GridPruning ... 4 (adaptive)
Weight generation scheme         WeightScheme... mBecke (2022)
Basis function cutoff            BFCut       ... 1.0000e-10
Integration weight cutoff        WCut        ... 1.0000e-14
Partially contracted basis set               ... on
Rotationally invariant grid construction     ... off
Angular grids for H and He will be reduced by one unit

Total number of grid points                  ...    12998
Total number of batches                      ...      106
Average number of points per batch           ...      122
Average number of grid points per atom       ...     1300
UseSFitting                                  ... on

GRIDX 3
-------
General Integration Accuracy     IntAcc      ... 4.338
Radial Grid Type                 RadialGrid  ... OptM3 with GC (2021)
Angular Grid (max. ang.)         AngularGrid ... 3 (Lebedev-194)
Angular grid pruning method      GridPruning ... 4 (adaptive)
Weight generation scheme         WeightScheme... mBecke (2022)
Basis function cutoff            BFCut       ... 1.0000e-10
Integration weight cutoff        WCut        ... 1.0000e-14
Partially contracted basis set               ... on
Rotationally invariant grid construction     ... off
Angular grids for H and He will be reduced by one unit

Total number of grid points                  ...    28608
Total number of batches                      ...      229
Average number of points per batch           ...      124
Average number of grid points per atom       ...     2861
UseSFitting                                  ... on
Initializing property integral containers    ... done (  0.0 sec)

SHARK setup successfully completed in   1.1 seconds

Maximum memory used throughout the entire STARTUP-calculation: 21.6 MB
-------------------------------------------------------------------------------
                                 ORCA GUESS
                   Start orbitals & Density for SCF / CASSCF
-------------------------------------------------------------------------------

------------
SCF SETTINGS
------------
Hamiltonian:
 Density Functional     Method          .... DFT(GTOs)
 Exchange Functional    Exchange        .... WB97X-V
 Correlation Functional Correlation     .... WB97X-V
 Gradients option       PostSCFGGA      .... off
 Hybrid DFT is turned on
   Fraction HF Exchange ScalHFX         ....  0.167000
   Scaling of DF-GGA-X  ScalDFX         ....  0.000000
   Scaling of DF-GGA-C  ScalDFC         ....  1.000000
   Scaling of DF-LDA-C  ScalLDAC        ....  1.000000
   Perturbative correction              ....  0.000000
 Long-range corrected/Screened/Range-Separated Hybrid DFT is turned on
   Amount of maximum screened exact exchange              ....  0.833000
   Range separation parameter mu (erf(mu*r12)/r12)        ....  0.300000
   NL short-range parameter             ....  6.000000
   NL long-range parameter              ....  0.010000
 RI-approximation to the Coulomb term is turned on
   Number of AuxJ basis functions       .... 300
   RIJ-COSX (HFX calculated with COS-X)).... on


General Settings:
 Integral files         IntName         .... orca
 Hartree-Fock type      HFTyp           .... UHF
 Total Charge           Charge          ....    0
 Multiplicity           Mult            ....    2
 Number of Electrons    NEL             ....   29
 Basis Dimension        Dim             ....   90
 Nuclear Repulsion      ENuc            ....    101.9724462871 Eh

Convergence Acceleration:
 AO-DIIS                CNVDIIS         .... on
   Start iteration      DIISMaxIt       ....    12
   Startup error        DIISStart       ....  0.200000
   # of expansion vecs  DIISMaxEq       ....     5
   Bias factor          DIISBfac        ....   1.050
   Max. coefficient     DIISMaxC        ....  10.000
 MO-DIIS                CNVKDIIS        .... off
 Trust-Rad. Augm. Hess. CNVTRAH         .... auto
   Auto Start mean grad. ratio tolernc. ....  1.125000
   Auto Start start iteration           ....    50
   Auto Start num. interpolation iter.  ....    10
   Max. Number of Micro iterations      ....    24
   Max. Number of Macro iterations      .... Maxiter - #DIIS iter
   Number of Davidson start vectors     ....     2
   Converg. threshold    (grad. norm)   ....   5.000e-05
   Grad. Scal. Fac. for Micro threshold ....   0.100
   Minimum threshold for Micro iter.    ....   1.000e-02
   NR start threshold (gradient norm)   ....   1.000e-04
   Initial trust radius                 ....   0.400
   Minimum AH scaling param. (alpha)    ....   1.000
   Maximum AH scaling param. (alpha)    .... 1000.000
   Quad. conv. algorithm                .... NR
   White noise on init. David. guess    .... on
   Maximum white noise                  ....   0.010
   Pseudo random numbers                .... off
   Inactive MOs                         .... canonical
   Orbital update algorithm             .... Taylor
   Preconditioner                       .... Diag
   Full preconditioner red. dimension   ....   250
 SOSCF                  CNVSOSCF        .... on
   Start iteration      SOSCFMaxIt      ....   150
   Startup grad/error   SOSCFStart      ....  0.003300
   Hessian update       SOSCFHessUp     .... L-BFGS
 Level Shifting         CNVShift        .... on
   Level shift para.    LevelShift      ....    0.2500
   Turn off err/grad.   ShiftErr        ....    0.0010
 Zerner damping         CNVZerner       .... off
 Static damping         CNVDamp         .... on
   Fraction old density DampFac         ....    0.7000
   Max. Damping (<1)    DampMax         ....    0.9800
   Min. Damping (>=0)   DampMin         ....    0.0000
   Turn off err/grad.   DampErr         ....    0.1000

SCF Procedure:
 Maximum # iterations   MaxIter         ....   125
 SCF integral mode      SCFMode         .... Direct
   Integral package                     .... SHARK and LIBINT hybrid scheme
 Reset frequency        DirectResetFreq ....    20
 Integral Threshold     Thresh          ....  1.000e-10 Eh
 Primitive CutOff       TCut            ....  1.000e-11 Eh

Convergence Tolerance:
 Convergence Check Mode ConvCheckMode   .... Total+1el-Energy
 Convergence forced     ConvForced      .... 0
 Energy Change          TolE            ....  1.000e-06 Eh
 1-El. energy change                    ....  1.000e-03 Eh
 Orbital Gradient       TolG            ....  5.000e-05
 Orbital Rotation angle TolX            ....  5.000e-05
 DIIS Error             TolErr          ....  1.000e-06

------------------------------
INITIAL GUESS: MODEL POTENTIAL
------------------------------
Loading Hartree-Fock densities                     ... done
Atomic calculation to generate a density for atom 0 (C  with ECP)
  Multiplicity assumed   :    1
  Atomic configuration   : 1s2 2s2 2p2 
  Number of open shells  : 1
  Command: /home/alejandro/orca_6_0_1/orca orca_atom6.inp "" > orca_atom6.out
Returned from the atomic calculation with res=0
Atomic calculation to generate a density for atom 3 (O  with ECP)
  Multiplicity assumed   :    3
  Atomic configuration   : 1s2 2s2 2p4 
  Number of open shells  : 1
  Command: /home/alejandro/orca_6_0_1/orca orca_atom8.inp "" > orca_atom8.out
Returned from the atomic calculation with res=0
Calculating cut-offs                               ... done
Initializing the effective Hamiltonian             ... done
Setting up the integral package (SHARK)            ... done
Starting the Coulomb interaction                   ... done (   0.1 sec)
Making the grid                                    ... done (   0.1 sec)
Mapping shells                                     ... done
Starting the XC term evaluation                    ... done (   0.1 sec)
  promolecular density results
     # of electrons  =     38.999386817
     EX              =    -22.555249110
     EC              =     -1.636042426
     EX+EC           =    -24.191291536
Transforming the Hamiltonian                       ... done (   0.0 sec)
Diagonalizing the Hamiltonian                      ... done (   0.0 sec)
Back transforming the eigenvectors                 ... done (   0.0 sec)
Now organizing SCF variables                       ... done
                      ------------------
                      INITIAL GUESS DONE (   1.2 sec)
                      ------------------
             **** ENERGY FILE WAS UPDATED (orca.en.tmp) ****
Finished Guess after   1.3 sec
Maximum memory used throughout the entire GUESS-calculation: 12.3 MB

-------------------------------------------------------------------------------------------
                                      ORCA LEAN-SCF
                              memory conserving SCF solver
-------------------------------------------------------------------------------------------

----------------------------------------D-I-I-S--------------------------------------------
Iteration    Energy (Eh)           Delta-E    RMSDP     MaxDP     DIISErr   Damp  Time(sec)
-------------------------------------------------------------------------------------------
               ***  Starting incremental Fock matrix formation  ***
    1    -52.0247025149546261     0.00e+00  1.93e-03  2.44e-02  6.56e-02  0.700   9.2
    2    -52.0595279722901267    -3.48e-02  1.40e-03  1.88e-02  3.73e-02  0.700   3.4
                               ***Turning on AO-DIIS***
    3    -52.0783337118215144    -1.88e-02  7.53e-04  9.89e-03  2.05e-02  0.700   3.3
    4    -52.0899258712055513    -1.16e-02  1.67e-03  2.00e-02  1.41e-02  0.000   3.3
    5    -52.1155580494875181    -2.56e-02  2.30e-04  8.18e-03  4.67e-03  0.000   3.3
                              *** Initializing SOSCF ***
---------------------------------------S-O-S-C-F--------------------------------------
Iteration    Energy (Eh)           Delta-E    RMSDP     MaxDP     MaxGrad    Time(sec)
--------------------------------------------------------------------------------------
    6    -52.1157452280879880    -1.87e-04  1.49e-04  4.74e-03  2.64e-03     3.2
               *** Restarting incremental Fock matrix formation ***
    7    -52.1158478246525902    -1.03e-04  1.34e-04  3.87e-03  1.44e-03     8.4
    8    -52.1158772091706197    -2.94e-05  1.61e-04  4.43e-03  9.70e-04     5.8
    9    -52.1158866913050787    -9.48e-06  4.06e-05  8.96e-04  4.01e-04     5.7
   10    -52.1158887055218401    -2.01e-06  4.78e-06  1.15e-04  4.47e-05     5.4
   11    -52.1158887267897768    -2.13e-08  2.56e-06  5.49e-05  1.42e-05     4.6
                 **** Energy Check signals convergence ****

               *****************************************************
               *                     SUCCESS                       *
               *           SCF CONVERGED AFTER  11 CYCLES          *
               *****************************************************

Recomputing exchange energy using gridx3       ... done (   12.292 sec)
Old exchange energy                            :     -5.890050086 Eh
New exchange energy                            :     -5.890004719 Eh
Exchange energy change after final integration :      0.000045367 Eh
Total energy after final integration           :    -52.115843360 Eh
             **** ENERGY FILE WAS UPDATED (orca.en.tmp) ****

----------------
TOTAL SCF ENERGY
----------------

Total Energy       :        -52.11584336008447 Eh           -1418.14419 eV

Components:
Nuclear Repulsion  :        101.97244628709110 Eh            2774.81133 eV
Electronic Energy  :       -154.08833501388088 Eh           -4192.95676 eV
One Electron Energy:       -283.71098445407051 Eh           -7720.16837 eV
Two Electron Energy:        129.62264944018963 Eh            3527.21161 eV

Virial components:
Potential Energy   :        -93.23483138581763 Eh           -2537.04874 eV
Kinetic Energy     :         41.11898802573316 Eh            1118.90455 eV
Virial Ratio       :          2.26743983406083

DFT components:
N(Alpha)           :       15.000011161401 electrons
N(Beta)            :       14.000006640142 electrons
N(Total)           :       29.000017801543 electrons
E(X)               :       -7.167402921197 Eh       
E(C)               :       -1.130251283342 Eh       
E(XC)              :       -8.297654204538 Eh       

---------------
SCF CONVERGENCE
---------------

  Last Energy change         ...    2.1268e-08  Tolerance :   1.0000e-06
  Last MAX-Density change    ...    5.4907e-05  Tolerance :   1.0000e-05
  Last RMS-Density change    ...    2.5619e-06  Tolerance :   1.0000e-06
  Last DIIS Error            ...    2.6450e-03  Tolerance :   1.0000e-06
  Last Orbital Gradient      ...    1.4215e-05  Tolerance :   5.0000e-05
  Last Orbital Rotation      ...    5.6642e-05  Tolerance :   5.0000e-05


----------------------
UHF SPIN CONTAMINATION
----------------------

Warning: in a DFT calculation there is little theoretical justification to 
         calculate <S**2> as in Hartree-Fock theory. We will do it anyways
         but you should keep in mind that the values have only limited relevance

Expectation value of <S**2>     :     0.754142
Ideal value S*(S+1) for S=0.5   :     0.750000
Deviation                       :     0.004142

----------------
ORBITAL ENERGIES
----------------
                 SPIN UP ORBITALS
  NO   OCC          E(Eh)            E(eV) 
   0   1.0000      -1.251427       -34.0531 
   1   1.0000      -1.152212       -31.3533 
   2   1.0000      -0.921824       -25.0841 
   3   1.0000      -0.786479       -21.4012 
   4   1.0000      -0.756020       -20.5723 
   5   1.0000      -0.655690       -17.8422 
   6   1.0000      -0.647313       -17.6143 
   7   1.0000      -0.592017       -16.1096 
   8   1.0000      -0.551098       -14.9961 
   9   1.0000      -0.548319       -14.9205 
  10   1.0000      -0.511746       -13.9253 
  11   1.0000      -0.480970       -13.0879 
  12   1.0000      -0.474819       -12.9205 
  13   1.0000      -0.407871       -11.0987 
  14   1.0000      -0.229364        -6.2413 
  15   0.0000       0.081825         2.2266 
  16   0.0000       0.108848         2.9619 
  17   0.0000       0.118292         3.2189 
  18   0.0000       0.121627         3.3096 
  19   0.0000       0.149987         4.0813 
  20   0.0000       0.171110         4.6561 
  21   0.0000       0.206776         5.6267 
  22   0.0000       0.288546         7.8517 
  23   0.0000       0.292722         7.9654 
  24   0.0000       0.358865         9.7652 
  25   0.0000       0.377294        10.2667 

                 SPIN DOWN ORBITALS
  NO   OCC          E(Eh)            E(eV) 
   0   1.0000      -1.241707       -33.7886 
   1   1.0000      -1.143919       -31.1276 
   2   1.0000      -0.915060       -24.9001 
   3   1.0000      -0.784127       -21.3372 
   4   1.0000      -0.736007       -20.0278 
   5   1.0000      -0.650123       -17.6907 
   6   1.0000      -0.637906       -17.3583 
   7   1.0000      -0.588001       -16.0003 
   8   1.0000      -0.543507       -14.7896 
   9   1.0000      -0.537652       -14.6302 
  10   1.0000      -0.477757       -13.0004 
  11   1.0000      -0.476613       -12.9693 
  12   1.0000      -0.471014       -12.8169 
  13   1.0000      -0.386695       -10.5225 
  14   0.0000       0.082377         2.2416 
  15   0.0000       0.089246         2.4285 
  16   0.0000       0.120702         3.2845 
  17   0.0000       0.121846         3.3156 
  18   0.0000       0.122084         3.3221 
  19   0.0000       0.152756         4.1567 
  20   0.0000       0.171412         4.6643 
  21   0.0000       0.211293         5.7496 
  22   0.0000       0.288588         7.8529 
  23   0.0000       0.316641         8.6162 
  24   0.0000       0.360548         9.8110 
*Only the first 10 virtual orbitals were printed.

                    ********************************
                    * MULLIKEN POPULATION ANALYSIS *
                    ********************************

--------------------------------------------
MULLIKEN ATOMIC CHARGES AND SPIN POPULATIONS
--------------------------------------------
   0 C :    0.118067   -0.005207
   1 C :    0.118097   -0.005234
   2 C :    0.139582    0.883314
   3 O :   -0.297915    0.063925
   4 O :   -0.298073    0.063815
   5 H :    0.046894    0.005243
   6 H :    0.048350    0.004279
   7 H :    0.047186    0.004817
   8 H :    0.048044    0.004704
   9 H :    0.029769   -0.019657
Sum of atomic charges         :   -0.0000000
Sum of atomic spin populations:    1.0000000

-----------------------------------------------------
MULLIKEN REDUCED ORBITAL CHARGES AND SPIN POPULATIONS
-----------------------------------------------------
CHARGE
  0 C s       :     1.006537  s :     1.006537
      pz      :     1.073556  p :     2.739563
      px      :     0.933225
      py      :     0.732782
      dz2     :     0.015819  d :     0.135833
      dxz     :     0.019555
      dyz     :     0.042244
      dx2y2   :     0.030732
      dxy     :     0.027483

  1 C s       :     1.006582  s :     1.006582
      pz      :     1.073681  p :     2.739510
      px      :     0.931179
      py      :     0.734650
      dz2     :     0.015779  d :     0.135812
      dxz     :     0.019450
      dyz     :     0.042371
      dx2y2   :     0.030780
      dxy     :     0.027431

  2 C s       :     1.056960  s :     1.056960
      pz      :     1.180170  p :     2.635736
      px      :     0.613580
      py      :     0.841986
      dz2     :     0.007992  d :     0.167721
      dxz     :     0.039440
      dyz     :     0.019452
      dx2y2   :     0.057759
      dxy     :     0.043079

  3 O s       :     1.709973  s :     1.709973
      pz      :     1.801466  p :     4.542825
      px      :     1.507537
      py      :     1.233822
      dz2     :     0.004760  d :     0.045117
      dxz     :     0.007642
      dyz     :     0.007172
      dx2y2   :     0.011238
      dxy     :     0.014306

  4 O s       :     1.710063  s :     1.710063
      pz      :     1.801345  p :     4.542896
      px      :     1.505528
      py      :     1.236023
      dz2     :     0.004761  d :     0.045114
      dxz     :     0.007694
      dyz     :     0.007123
      dx2y2   :     0.011447
      dxy     :     0.014088

  5 H s       :     0.912012  s :     0.912012
      pz      :     0.020348  p :     0.041095
      px      :     0.012548
      py      :     0.008198

  6 H s       :     0.910508  s :     0.910508
      pz      :     0.019842  p :     0.041142
      px      :     0.012690
      py      :     0.008611

  7 H s       :     0.911718  s :     0.911718
      pz      :     0.020242  p :     0.041096
      px      :     0.012502
      py      :     0.008351

  8 H s       :     0.910817  s :     0.910817
      pz      :     0.019946  p :     0.041139
      px      :     0.012618
      py      :     0.008575

  9 H s       :     0.913751  s :     0.913751
      pz      :     0.026431  p :     0.056480
      px      :     0.004704
      py      :     0.025345


SPIN
  0 C s       :    -0.000907  s :    -0.000907
      pz      :    -0.001101  p :    -0.006445
      px      :    -0.000672
      py      :    -0.004672
      dz2     :    -0.000027  d :     0.002146
      dxz     :     0.000331
      dyz     :     0.002217
      dx2y2   :    -0.000092
      dxy     :    -0.000283

  1 C s       :    -0.000908  s :    -0.000908
      pz      :    -0.001102  p :    -0.006474
      px      :    -0.000706
      py      :    -0.004666
      dz2     :    -0.000033  d :     0.002148
      dxz     :     0.000355
      dyz     :     0.002203
      dx2y2   :    -0.000096
      dxy     :    -0.000280

  2 C s       :     0.066881  s :     0.066881
      pz      :     0.788412  p :     0.816696
      px      :     0.013850
      py      :     0.014434
      dz2     :    -0.001545  d :    -0.000262
      dxz     :    -0.002211
      dyz     :     0.003613
      dx2y2   :     0.000074
      dxy     :    -0.000193

  3 O s       :    -0.000486  s :    -0.000486
      pz      :     0.079944  p :     0.060414
      px      :    -0.015897
      py      :    -0.003632
      dz2     :     0.000030  d :     0.003997
      dxz     :     0.001044
      dyz     :     0.002894
      dx2y2   :     0.000044
      dxy     :    -0.000016

  4 O s       :    -0.000484  s :    -0.000484
      pz      :     0.079828  p :     0.060301
      px      :    -0.016068
      py      :    -0.003458
      dz2     :     0.000032  d :     0.003998
      dxz     :     0.001083
      dyz     :     0.002854
      dx2y2   :     0.000045
      dxy     :    -0.000016

  5 H s       :     0.004953  s :     0.004953
      pz      :    -0.000011  p :     0.000291
      px      :     0.000114
      py      :     0.000187

  6 H s       :     0.004046  s :     0.004046
      pz      :    -0.000016  p :     0.000233
      px      :     0.000090
      py      :     0.000159

  7 H s       :     0.004542  s :     0.004542
      pz      :    -0.000011  p :     0.000275
      px      :     0.000113
      py      :     0.000173

  8 H s       :     0.004456  s :     0.004456
      pz      :    -0.000017  p :     0.000248
      px      :     0.000097
      py      :     0.000167

  9 H s       :    -0.041691  s :    -0.041691
      pz      :     0.021058  p :     0.022035
      px      :    -0.000083
      py      :     0.001060



                     *******************************
                     * LOEWDIN POPULATION ANALYSIS *
                     *******************************

-------------------------------------------
LOEWDIN ATOMIC CHARGES AND SPIN POPULATIONS
-------------------------------------------
   0 C :   -0.023380    0.000748
   1 C :   -0.023289    0.000724
   2 C :   -0.055615    0.693968
   3 O :   -0.061055    0.124023
   4 O :   -0.061146    0.123892
   5 H :    0.050081    0.002866
   6 H :    0.051184    0.002219
   7 H :    0.050290    0.002606
   8 H :    0.050988    0.002476
   9 H :    0.021941    0.046476

----------------------------------------------------
LOEWDIN REDUCED ORBITAL CHARGES AND SPIN POPULATIONS
----------------------------------------------------
CHARGE
  0 C s       :     0.766480  s :     0.766480
      pz      :     1.093163  p :     2.848237
      px      :     0.969247
      py      :     0.785827
      dz2     :     0.051873  d :     0.408663
      dxz     :     0.063738
      dyz     :     0.115715
      dx2y2   :     0.090996
      dxy     :     0.086340

  1 C s       :     0.766495  s :     0.766495
      pz      :     1.093266  p :     2.848197
      px      :     0.967706
      py      :     0.787225
      dz2     :     0.051767  d :     0.408596
      dxz     :     0.063289
      dyz     :     0.116213
      dx2y2   :     0.090887
      dxy     :     0.086440

  2 C s       :     0.792338  s :     0.792338
      pz      :     1.073806  p :     2.766461
      px      :     0.741155
      py      :     0.951499
      dz2     :     0.040078  d :     0.496816
      dxz     :     0.106812
      dyz     :     0.046763
      dx2y2   :     0.175907
      dxy     :     0.127257

  3 O s       :     1.401006  s :     1.401006
      pz      :     1.724400  p :     4.544442
      px      :     1.537302
      py      :     1.282741
      dz2     :     0.010251  d :     0.115607
      dxz     :     0.017056
      dyz     :     0.022570
      dx2y2   :     0.029075
      dxy     :     0.036655

  4 O s       :     1.401075  s :     1.401075
      pz      :     1.724346  p :     4.544472
      px      :     1.535723
      py      :     1.284403
      dz2     :     0.010265  d :     0.115598
      dxz     :     0.017207
      dyz     :     0.022416
      dx2y2   :     0.029404
      dxy     :     0.036305

  5 H s       :     0.807479  s :     0.807479
      pz      :     0.063679  p :     0.142440
      px      :     0.043760
      py      :     0.035000

  6 H s       :     0.806629  s :     0.806629
      pz      :     0.062423  p :     0.142187
      px      :     0.043985
      py      :     0.035780

  7 H s       :     0.807309  s :     0.807309
      pz      :     0.063436  p :     0.142401
      px      :     0.043613
      py      :     0.035352

  8 H s       :     0.806778  s :     0.806778
      pz      :     0.062682  p :     0.142234
      px      :     0.043789
      py      :     0.035764

  9 H s       :     0.809172  s :     0.809172
      pz      :     0.077647  p :     0.168887
      px      :     0.019059
      py      :     0.072180


SPIN
  0 C s       :    -0.000437  s :    -0.000437
      pz      :    -0.000582  p :    -0.004544
      px      :    -0.000582
      py      :    -0.003381
      dz2     :     0.000039  d :     0.005729
      dxz     :     0.000629
      dyz     :     0.005697
      dx2y2   :    -0.000123
      dxy     :    -0.000513

  1 C s       :    -0.000439  s :    -0.000439
      pz      :    -0.000584  p :    -0.004570
      px      :    -0.000602
      py      :    -0.003384
      dz2     :     0.000024  d :     0.005734
      dxz     :     0.000674
      dyz     :     0.005674
      dx2y2   :    -0.000138
      dxy     :    -0.000500

  2 C s       :     0.021683  s :     0.021683
      pz      :     0.646676  p :     0.663759
      px      :     0.008777
      py      :     0.008305
      dz2     :    -0.001429  d :     0.008526
      dxz     :    -0.003827
      dyz     :     0.015842
      dx2y2   :    -0.001425
      dxy     :    -0.000634

  3 O s       :     0.003209  s :     0.003209
      pz      :     0.110964  p :     0.102579
      px      :    -0.008158
      py      :    -0.000227
      dz2     :     0.000215  d :     0.018236
      dxz     :     0.010662
      dyz     :     0.006384
      dx2y2   :     0.000183
      dxy     :     0.000792

  4 O s       :     0.003208  s :     0.003208
      pz      :     0.110843  p :     0.102454
      px      :    -0.008245
      py      :    -0.000144
      dz2     :     0.000226  d :     0.018231
      dxz     :     0.010801
      dyz     :     0.006231
      dx2y2   :     0.000188
      dxy     :     0.000785

  5 H s       :     0.001995  s :     0.001995
      pz      :     0.000153  p :     0.000872
      px      :     0.000038
      py      :     0.000680

  6 H s       :     0.001598  s :     0.001598
      pz      :     0.000069  p :     0.000621
      px      :     0.000003
      py      :     0.000550

  7 H s       :     0.001821  s :     0.001821
      pz      :     0.000118  p :     0.000785
      px      :     0.000040
      py      :     0.000627

  8 H s       :     0.001772  s :     0.001772
      pz      :     0.000099  p :     0.000705
      px      :     0.000009
      py      :     0.000597

  9 H s       :    -0.021623  s :    -0.021623
      pz      :     0.062789  p :     0.068099
      px      :     0.000247
      py      :     0.005063



                      *****************************
                      * MAYER POPULATION ANALYSIS *
                      *****************************

  NA   - Mulliken gross atomic population
  ZA   - Total nuclear charge
  QA   - Mulliken gross atomic charge
  VA   - Mayer's total valence
  BVA  - Mayer's bonded valence
  FA   - Mayer's free valence

  ATOM       NA         ZA         QA         VA         BVA        FA
  0 C      3.8819     4.0000     0.1181     3.9379     3.9378     0.0000
  1 C      3.8819     4.0000     0.1181     3.9377     3.9377     0.0000
  2 C      3.8604     4.0000     0.1396     3.8732     3.2288     0.6444
  3 O      6.2979     6.0000    -0.2979     2.0403     2.0266     0.0137
  4 O      6.2981     6.0000    -0.2981     2.0401     2.0264     0.0137
  5 H      0.9531     1.0000     0.0469     1.0207     1.0206     0.0000
  6 H      0.9516     1.0000     0.0484     1.0203     1.0203     0.0000
  7 H      0.9528     1.0000     0.0472     1.0205     1.0204     0.0000
  8 H      0.9520     1.0000     0.0480     1.0205     1.0204     0.0000
  9 H      0.9702     1.0000     0.0298     1.0720     1.0698     0.0021

  Mayer bond orders larger than 0.100000
B(  0-C ,  1-C ) :   0.9745 B(  0-C ,  4-O ) :   0.9367 B(  0-C ,  5-H ) :   1.0018 
B(  0-C ,  6-H ) :   1.0024 B(  1-C ,  3-O ) :   0.9366 B(  1-C ,  7-H ) :   1.0020 
B(  1-C ,  8-H ) :   1.0022 B(  2-C ,  3-O ) :   1.0651 B(  2-C ,  4-O ) :   1.0649 
B(  2-C ,  9-H ) :   1.0561 

-------
TIMINGS
-------

Total SCF time: 0 days 0 hours 1 min 7 sec 

Total time                  ....      67.900 sec
Sum of individual times     ....      67.475 sec  ( 99.4%)

SCF preparation             ....       0.087 sec  (  0.1%)
Fock matrix formation       ....      65.798 sec  ( 96.9%)
  Startup                   ....       0.003 sec  (  0.0% of F)
  Split-RI-J                ....       2.381 sec  (  3.6% of F)
  Chain of spheres X        ....      54.605 sec  ( 83.0% of F)
  XC integration            ....       8.053 sec  ( 12.2% of F)
    Basis function eval.    ....       1.808 sec  ( 22.5% of XC)
    Density eval.           ....       1.491 sec  ( 18.5% of XC)
    XC-Functional eval.     ....       1.011 sec  ( 12.5% of XC)
    XC-Potential eval.      ....       2.320 sec  ( 28.8% of XC)
Diagonalization             ....       0.000 sec  (  0.0%)
Density matrix formation    ....       0.909 sec  (  1.3%)
Total Energy calculation    ....       0.002 sec  (  0.0%)
Population analysis         ....       0.004 sec  (  0.0%)
Orbital Transformation      ....       0.007 sec  (  0.0%)
Orbital Orthonormalization  ....       0.000 sec  (  0.0%)
DIIS solution               ....       0.642 sec  (  0.9%)
SOSCF solution              ....       0.025 sec  (  0.0%)
Finished LeanSCF after  67.9 sec

Maximum memory used throughout the entire LEANSCF-calculation: 14.3 MB


-------------------------------------------------------------------------------
                          DFT DISPERSION CORRECTION                            
                                                                               
                                DFTD4 V3.4.0                                   
-------------------------------------------------------------------------------
The wB97X-3c composite method is recognized
Using three-body term ABC
Active option DFTDOPT                   ...         5   

-------------------------   ----------------
Dispersion correction           -0.007923483
-------------------------   ----------------


-------------------------   --------------------
FINAL SINGLE POINT ENERGY       -52.123766843008
-------------------------   --------------------


------------------------------------------------------------------------------
                              ORCA PROPERTY CALCULATIONS
------------------------------------------------------------------------------

GBWName                                 ... orca.gbw
Number of atoms                         ...     10
Number of basis functions               ...     90
Max core memory                         ...   8000 MB

Electric properties:
Dipole moment                           ... YES
Quadrupole moment                       ...  NO
Static polarizability (Dipole/Dipole)   ...  NO
Static polarizability (Dipole/Quad.)    ...  NO
Static polarizability (Quad./Quad.)     ...  NO
Static polarizability (Velocity)        ...  NO

Atomic electric properties:
Dipole moment                           ...  NO
Quadrupole moment                       ...  NO
Static polarizability                   ...  NO

Choice of electric origin               ... Center of mass
Position of electric origin             ...     0.052230     0.148598     0.061010

General magnetic properties:
Magnetizability                         ...  NO

EPR properties:
g-Tensor (aka g-matrix)                 ...  NO
Zero-Field splitting spin-orbit         ...  NO
Zero-field splitting spin-spin          ...  NO
Hyperfine couplings                     ...  NO (   0 nuclei)
Quadrupole couplings                    ...  NO (   0 nuclei)
Contact density                         ...  NO (   0 nuclei)

NMR properties:
Chemical shifts                         ...  NO (   0 nuclei)
Spin-rotation constants                 ...  NO (   0 nuclei)
Spin-spin couplings                     ...  NO (   0 nuclei,    0 pairs)

Choice of magnetic origin               ... GIAO
Position of magnetic origin             ...     0.000000     0.000000     0.000000

Properties with geometric perturbations:
SCF Hessian                             ...  NO
IR spectrum                             ...  NO
VCD spectrum                            ...  NO
X-ray spectroscopy properties:
SCF XES/XAS/RIXS spectra                ...  NO


-------------
DIPOLE MOMENT
-------------

Method             : SCF
Type of density    : Electron Density
Multiplicity       :   2
Irrep              :   0
Energy             :   -52.1158433600844688 Eh
Relativity type    : 
Basis              : AO
                                X                 Y                 Z
Electronic contribution:      0.013039794       2.563053674      -0.018765655
Nuclear contribution   :     -0.016898520      -3.418936440       0.024473158
                        -----------------------------------------
Total Dipole Moment    :     -0.003858727      -0.855882766       0.005707503
                        -----------------------------------------
Magnitude (a.u.)       :      0.855910494
Magnitude (Debye)      :      2.175551582



--------------------
Rotational spectrum 
--------------------
 
Rotational constants in cm-1:             0.281573             0.263608             0.143508 
Rotational constants in MHz :          8441.344194          7902.765069          4302.273187 

Dipole components along the rotational axes: 
x,y,z [a.u.] :     0.000181    -0.855902     0.003708 
x,y,z [Debye]:     0.000459    -2.175531     0.009425 

 

Dipole moment calculation done in   0.0 sec 

Maximum memory used throughout the entire PROP-calculation: 7.8 MB

--------------------------------
SUGGESTED CITATIONS FOR THIS RUN
--------------------------------

Below you find a list of papers that are relevant to this ORCA run
We neither can nor want to force you to cite these papers, but we appreciate if you do
You receive ORCA, which is the product of decades of hard work by many enthusiastic individuals, for free
The only thing we kindly ask in return is that you cite our papers,
We deeply appreciate it, if you show your appreciation for ORCA by not just citing the generic ORCA reference.

Please note that relegating all ORCA citations to the supporting information does *not* help us.
SI sections are not indexed - citations you put there will not count into any citation statistics
But we need these citations in order to attract the funding resources that allow us to do what we are doing

Therefore, if you are a happy ORCA user, please consider citing a few of the papers listed below in the main body of your paper

In addition to the list printed below, the program has created the file orca.bibtex that contains the list in bibtex format
You can import this file easily into all common literature databanks and citation aid programs


List of essential papers. We consider these as the minimum necessary citations

  1. Neese,F.
     Software update: the ORCA program system, version 5.0
     WIRES Comput. Molec. Sci., 2022 12(1)e1606
     doi.org/10.1002/wcms.1606
  2. Mueller,M.; Hansen,A.; Grimme,S.
     wB97X-3c: A composite range-separated hybrid DFT method with a molecule-optimized polarized valence double-zeta basis set
     J. Chem. Phys., 2023 158 014103
     doi.org/10.1063/5.0133026

List of papers to cite with high priority. The work reported in these papers was absolutely
necessary for this run to complete.
Our perspective: the developers of density functionals and basis sets usually get cited in chemistry papers
Good! But without the algorithms to do something with them, the functionals or basis sets would not do anything.
Hence, in our opinion, the algorithm design and method developments papers are equally worthy of getting cited

  1. Neese,F.
     An improvement of the resolution of the identity approximation for the formation of the Coulomb matrix
     J. Comp. Chem., 2003 24(14)1740-1747
     doi.org/10.1002/jcc.10318
  2. Neese,F.; Wennmohs,F.; Hansen,A.; Becker,U.
     Efficient, approximate and parallel Hartree-Fock and hybrid DFT calculations. A 'chain-of-spheres' algorithm for the Hartree-Fock exchange
     Chem. Phys., 2009 356(1-3)98-109
     doi.org/10.1016/j.chemphys.2008.10.036
  3. Helmich-Paris,B.; de Souza,B.; Neese,F.; Izsák,R.
     An improved chain of spheres for exchange algorithm
     J. Chem. Phys., 2021 155 104109
     doi.org/doi: 10.1063/5.0058766.
  4. Neese,F.
     The SHARK Integral Generation and Digestion System
     J. Comp. Chem., 2022  1-16
     doi.org/10.1002/jcc.26942
  5. Caldeweyher,E.; Bannwarth,C.; Grimme,S.
     Extension of the D3 dispersion coefficient model
     J. Chem. Phys., 2017 147 034112
     doi.org/10.1063/1.4993215
  6. Caldeweyher,E.; Ehlert,S.; Hansen,A.; Neugebauer,H.; Spicher,S.; Bannwarth,C.; Grimme,S.
     A generally applicable atomic-charge dependent London dispersion correction
     J. Chem. Phys., 2019 150 154122
     doi.org/10.1063/1.5090222
  7. Caldeweyher,E.; Mewes,J.; Ehlert,S.; Grimme,S.
     Extension and evaluation of the D4 London-dispersion model for periodic systems
     Phys. Chem. Chem. Phys., 2020 22(16)8499-8512
     doi.org/10.1039/D0CP00502A
  8. Wittmann,L.; Gordiy,I.; Friede,M.; Helmich-Paris,B.; Grimme,S.; Hansen,A.; Bursch,M.
     Extension of the D3 and D4 London Dispersion Corrections to the full Actinides Series
     Phys. Chem. Chem. Phys., 2024 26(32)21379-21394
     doi.org/https://doi.org/10.1039/D4CP01514B 

List of suggested additional citations. These are papers that are important in the 'surrounding' of 
of this run, or papers that preceded the highly important papers. If you like your results we are grateful for a citation.

  1. Izsak,R.; Neese,F.
     An overlap fitted chain of spheres exchange method
     J. Chem. Phys., 2011 135 144105
     doi.org/10.1063/1.3646921
  2. Izsak,R.; Hansen,A.; Neese,F.
     The resolution of identity and chain of spheres approximations for the LPNO-CCSD singles Fock term
     Molec. Phys., 2012 110 2413-2417
     doi.org/10.1080/00268976.2012.687466
  3. Neese,F.
     The ORCA program system
     WIRES Comput. Molec. Sci., 2012 2(1)73-78
     doi.org/10.1002/wcms.81
  4. Izsak,R.; Neese,F.; Klopper,W.
     Robust fitting techniques in the chain of spheres approximation to the Fock exchange: The role of the complementary space
     J. Chem. Phys., 2013 139 
     doi.org/10.1063/1.4819264
  5. Neese,F.
     Software update: the ORCA program system, version 4.0
     WIRES Comput. Molec. Sci., 2018 8(1)1-6
     doi.org/10.1002/wcms.1327
  6. Neese,F.; Wennmohs,F.; Becker,U.; Riplinger,C.
     The ORCA quantum chemistry program package
     J. Chem. Phys., 2020 152 Art. No. L224108
     doi.org/10.1063/5.0004608

List of optional additional citations

  1. Neese,F.
     Approximate second-order SCF convergence for spin unrestricted wavefunctions
     Chem. Phys. Lett., 2000 325(1-3)93-98
     doi.org/10.1016/s0009-2614(00)00662-x

Timings for individual modules:

Sum of individual times          ...       70.418 sec (=   1.174 min)
Startup calculation              ...        1.086 sec (=   0.018 min)   1.5 %
SCF iterations                   ...       69.241 sec (=   1.154 min)  98.3 %
Property calculations            ...        0.092 sec (=   0.002 min)   0.1 %
                             ****ORCA TERMINATED NORMALLY****
TOTAL RUN TIME: 0 days 0 hours 1 minutes 10 seconds 561 msec
