 Entering Gaussian System
 *********************************************
 Gaussian 98:
 frequency output generated by the xtb code
 *********************************************
                         Standard orientation:
 --------------------------------------------------------------------
  Center     Atomic     Atomic              Coordinates (Angstroms)
  Number     Number      Type              X           Y           Z
 --------------------------------------------------------------------
    1          6             0        1.914404   -0.160665    0.194676
    2          6             0        0.400872    1.728884   -0.045390
    3          8             0        1.819934    1.022418   -0.087856
    4          8             0       -0.502250    1.083347    0.250056
    5          1             0        2.902440   -0.636111    0.161699
    6          1             0        1.040734   -0.769051    0.482793
    7          1             0        0.597626    2.761713   -0.328446
 --------------------------------------------------------------------
     1 basis functions        1 primitive gaussians
     1 alpha electrons        1 beta electrons

 Harmonic frequencies (cm**-1), IR intensities (km*mol⁻¹),
 Raman scattering activities (A**4/amu), Raman depolarization ratios,
 reduced masses (AMU), force constants (mDyne/A) and normal coordinates:
                      1                      2                      3
                        a                      a                      a 
 Frequencies --   111.4201               264.3424               453.2556
 Red. masses --     9.3911                11.0885                13.1919
 Frc consts  --     0.0000                 0.0000                 0.0000
 IR Inten    --    49.6440                14.3281               261.7751
 Raman Activ --     0.0000                 0.0000                 0.0000
 Depolar     --     0.0000                 0.0000                 0.0000
 Atom AN      X      Y      Z        X      Y      Z        X      Y      Z
   1   6     0.05   0.07   0.27    -0.55   0.17   0.04    -0.08   0.08  -0.01
   2   6     0.07   0.10   0.42     0.09   0.02  -0.02     0.56  -0.31  -0.01
   3   8    -0.08  -0.12  -0.48     0.14   0.22  -0.08    -0.66   0.15   0.07
   4   8    -0.05  -0.07  -0.31     0.42  -0.41   0.04     0.20   0.04  -0.04
   5   1    -0.01  -0.02  -0.07    -0.25  -0.14   0.07     0.06   0.21  -0.07
   6   1     0.06   0.10   0.39    -0.30   0.23  -0.01     0.08  -0.11   0.02
   7   1     0.07   0.10   0.43    -0.09   0.03   0.01     0.05  -0.06   0.00
                      4                      5                      6
                        a                      a                      a 
 Frequencies --   488.3009               666.0810               920.6706
 Red. masses --     2.4836                12.3602                 5.5278
 Frc consts  --     0.0000                 0.0000                 0.0000
 IR Inten    --     5.8648                72.0274                 3.1692
 Raman Activ --     0.0000                 0.0000                 0.0000
 Depolar     --     0.0000                 0.0000                 0.0000
 Atom AN      X      Y      Z        X      Y      Z        X      Y      Z
   1   6    -0.01  -0.02  -0.08    -0.03   0.16  -0.04     0.00   0.00   0.01
   2   6    -0.01  -0.00  -0.04     0.24  -0.60   0.11    -0.08  -0.14  -0.56
   3   8     0.05   0.07   0.28     0.33   0.20  -0.10     0.02   0.03   0.13
   4   8    -0.01  -0.02  -0.08    -0.47   0.19   0.02     0.03   0.04   0.18
   5   1    -0.11  -0.18  -0.70    -0.10  -0.13   0.04    -0.02  -0.03  -0.13
   6   1     0.08   0.13   0.53    -0.14   0.21  -0.03     0.01   0.02   0.07
   7   1    -0.04  -0.06  -0.24     0.06  -0.16   0.03     0.11   0.18   0.73
                      7                      8                      9
                        a                      a                      a 
 Frequencies --  1062.5249              1091.9051              1132.0687
 Red. masses --     4.1323                 5.1866                 2.4137
 Frc consts  --     0.0000                 0.0000                 0.0000
 IR Inten    --    28.0549                 2.0523                 8.1685
 Raman Activ --     0.0000                 0.0000                 0.0000
 Depolar     --     0.0000                 0.0000                 0.0000
 Atom AN      X      Y      Z        X      Y      Z        X      Y      Z
   1   6    -0.08  -0.12  -0.49    -0.41  -0.03   0.07    -0.23   0.11   0.01
   2   6    -0.00  -0.00  -0.01     0.08  -0.07   0.01    -0.16   0.01   0.02
   3   8     0.02   0.03   0.14     0.36  -0.01  -0.05     0.10   0.03  -0.02
   4   8     0.00   0.00   0.00    -0.06   0.06  -0.01    -0.02  -0.12   0.03
   5   1     0.09   0.14   0.56     0.14   0.51  -0.15     0.06   0.29  -0.08
   6   1     0.09   0.15   0.60     0.20  -0.41   0.07     0.08  -0.14   0.02
   7   1     0.00   0.00   0.02    -0.39   0.07   0.04     0.85  -0.20  -0.08
                     10                     11                     12
                        a                      a                      a 
 Frequencies --  1315.3565              1642.3495              1959.0741
 Red. masses --     1.9615                13.2123                13.1080
 Frc consts  --     0.0000                 0.0000                 0.0000
 IR Inten    --    58.3323                93.6602               263.1320
 Raman Activ --     0.0000                 0.0000                 0.0000
 Depolar     --     0.0000                 0.0000                 0.0000
 Atom AN      X      Y      Z        X      Y      Z        X      Y      Z
   1   6    -0.07   0.09  -0.01    -0.05   0.71  -0.17     0.01   0.06  -0.02
   2   6     0.00  -0.01   0.00    -0.01  -0.06   0.02     0.52   0.42  -0.18
   3   8     0.00   0.23  -0.06     0.01  -0.62   0.15     0.03  -0.08   0.02
   4   8     0.00  -0.01   0.00     0.06   0.05  -0.02    -0.51  -0.39   0.17
   5   1    -0.28  -0.54   0.18    -0.13  -0.01   0.02    -0.01  -0.01   0.01
   6   1     0.43  -0.58   0.08     0.13   0.03  -0.03     0.01   0.00  -0.00
   7   1     0.04  -0.01  -0.00    -0.06  -0.01   0.01     0.07   0.23  -0.07
                     13                     14                     15
                        a                      a                      a 
 Frequencies --  2871.0038              2924.1227              2991.3683
 Red. masses --     1.7235                 1.9564                 2.2342
 Frc consts  --     0.0000                 0.0000                 0.0000
 IR Inten    --     9.0340                75.9994                30.8561
 Raman Activ --     0.0000                 0.0000                 0.0000
 Depolar     --     0.0000                 0.0000                 0.0000
 Atom AN      X      Y      Z        X      Y      Z        X      Y      Z
   1   6     0.16   0.19  -0.07    -0.28   0.10   0.02     0.01  -0.00  -0.00
   2   6    -0.00   0.00  -0.00     0.00   0.01  -0.00     0.11   0.30  -0.09
   3   8     0.01  -0.01   0.00    -0.00  -0.01   0.00    -0.00   0.00   0.00
   4   8     0.00   0.00  -0.00     0.00  -0.00   0.00    -0.05  -0.03   0.02
   5   1     0.17  -0.07  -0.01     0.85  -0.42  -0.03    -0.02   0.01   0.00
   6   1    -0.74  -0.54   0.25     0.11   0.10  -0.04     0.00   0.00  -0.00
   7   1     0.00  -0.01   0.00    -0.00  -0.02   0.01    -0.17  -0.89   0.25
