7
 energy: -13.374632947116 gnorm: 0.028061301047 xtb: 6.7.1 (edcfbbe)
C            1.91440410433904       -0.16066547549042        0.19467622061640
C            0.40087243571975        1.72888401399852       -0.04539001455094
O            1.81993380187502        1.02241820676924       -0.08785635836281
O           -0.50225010889935        1.08334730354500        0.25005577171355
H            2.90243967912363       -0.63611073946547        0.16169917816618
H            1.04073369638169       -0.76905116596252        0.48279305032629
H            0.59762594194373        2.76171316427733       -0.32844570963038
