7
 energy: -13.374632947125 gnorm: 0.028061504366 xtb: 6.7.1 (edcfbbe)
C            1.91329856538455       -0.16851859463163        0.19683838371180
C            0.40739591371106        1.71186589292349       -0.04335082623984
O            1.83837903142188        1.02511843088328       -0.09448620808345
O           -0.49411654569776        1.06667349054907        0.24970378311458
H            2.89965268915768       -0.62911057055493        0.15946709385963
H            1.01524181010958       -0.72475083114096        0.47969920860523
H            0.59387955591301        2.74929919197168       -0.32030198496796
7
 energy: -13.375055158818 gnorm: 0.011408549498 xtb: 6.7.1 (edcfbbe)
C            1.91410450855777       -0.16610262676616        0.19775301602999
C            0.40656873981216        1.72242392807577       -0.04211816955032
O            1.82851459062696        1.02123352919441       -0.08962160510238
O           -0.49479974686555        1.07280643947249        0.24890556717545
H            2.90343188757218       -0.63122580788224        0.15844318436832
H            1.02331617286174       -0.74602081295982        0.48088295296358
H            0.59259486743474        2.75746236086557       -0.32667549588465
7
 energy: -13.375084072540 gnorm: 0.007315383359 xtb: 6.7.1 (edcfbbe)
C            1.91322382368025       -0.16353061534560        0.18872491775971
C            0.40124125204299        1.72579609294033       -0.05975076357027
O            1.81803883014151        1.01784925876936       -0.09679010448270
O           -0.49892898384909        1.08071716976863        0.24917154008010
H            2.90550368630434       -0.63239383027661        0.16591335361553
H            1.03660963373296       -0.76450703874418        0.49238302615362
H            0.59804277794703        2.76664597288807       -0.31208251955600
7
 energy: -13.375148521912 gnorm: 0.008013042126 xtb: 6.7.1 (edcfbbe)
C            1.91501796299997       -0.15806857402900        0.19828358407087
C            0.40219191872908        1.73278745722505       -0.03954012431562
O            1.81676719692921        1.02229292701832       -0.08341567120441
O           -0.50283830097809        1.08474670784793        0.24773156149662
H            2.90307053682604       -0.63680303091126        0.15738981726512
H            1.04214379474360       -0.77630828468468        0.48199070101161
H            0.59737791075019        2.76192980753364       -0.33487041832419
7
 energy: -13.375195944836 gnorm: 0.001230377077 xtb: 6.7.1 (edcfbbe)
C            1.91416677607242       -0.16153747796690        0.19388135312944
C            0.40224521754213        1.72821167843524       -0.04399338405543
O            1.82035717366899        1.02207786780207       -0.08868810651685
O           -0.50133879212321        1.08177468568710        0.24856636767100
H            2.90286639410228       -0.63506622864069        0.16141591060548
H            1.03832239147754       -0.76598022093202        0.48401327010833
H            0.59711185925986        2.76109670561520       -0.32762596094199
7
 energy: -13.375148839760 gnorm: 0.004157644562 xtb: 6.7.1 (edcfbbe)
C            1.91580038769239       -0.15856750229512        0.20397747084179
C            0.40039522807115        1.72672832848437       -0.05191656536340
O            1.82010738960809        1.02242966693931       -0.08830631577924
O           -0.50161917220612        1.08322128564327        0.25161361354793
H            2.90175845505643       -0.63690061259246        0.15718932817751
H            1.03948142158644       -0.76834180512844        0.48058238379377
H            0.59780731019161        2.76200764894908       -0.32557046521838
7
 energy: -13.375193789430 gnorm: 0.001500141093 xtb: 6.7.1 (edcfbbe)
C            1.91484100724944       -0.15978780378580        0.19762536107397
C            0.40075761658677        1.72825224258990       -0.04788566954406
O            1.81945962206644        1.02232252105072       -0.08834553445461
O           -0.50221033741140        1.08347332726078        0.25014408057811
H            2.90223877172894       -0.63638903303133        0.16017634144596
H            1.04075709075245       -0.76940309193200        0.48274507502634
H            0.59788724902736        2.76210884784773       -0.32689020412571
7
 energy: -13.375197785798 gnorm: 0.001012374991 xtb: 6.7.1 (edcfbbe)
C            1.91421057657830       -0.16115508740526        0.19366687369209
C            0.40132887538291        1.72883924984521       -0.04372194649477
O            1.82032343253422        1.02255115627729       -0.08785444095228
O           -0.50216395678552        1.08285701483046        0.24950682227116
H            2.90246561134326       -0.63584826425084        0.16201772140221
H            1.04018699133828       -0.76792820860377        0.48297243991573
H            0.59737948960855        2.76126114930689       -0.32901801983414
7
 energy: -13.375199672164 gnorm: 0.000284869223 xtb: 6.7.1 (edcfbbe)
C            1.91440426599539       -0.16065579147729        0.19468262275217
C            0.40086354173732        1.72888619215343       -0.04538559779791
O            1.81992875514632        1.02242788923195       -0.08784822114039
O           -0.50225665414192        1.08334423732649        0.25005590930139
H            2.90244244529759       -0.63609582455314        0.16170819940617
H            1.04073603783791       -0.76904655932109        0.48279534094461
H            0.59761262812739        2.76171686663964       -0.32843880346604
