 Entering Gaussian System
 *********************************************
 Gaussian 98:
 frequency output generated by the xtb code
 *********************************************
                         Standard orientation:
 --------------------------------------------------------------------
  Center     Atomic     Atomic              Coordinates (Angstroms)
  Number     Number      Type              X           Y           Z
 --------------------------------------------------------------------
    1          6             0        0.542183    2.451501   -0.144313
    2          8             0        1.577411    2.111896   -0.377411
    3          8             0       -0.585394    2.697542    0.133738
    4          1             0       -1.168752    3.490780    0.149544
 --------------------------------------------------------------------
     1 basis functions        1 primitive gaussians
     1 alpha electrons        1 beta electrons

 Harmonic frequencies (cm**-1), IR intensities (km*mol⁻¹),
 Raman scattering activities (A**4/amu), Raman depolarization ratios,
 reduced masses (AMU), force constants (mDyne/A) and normal coordinates:
                      1                      2                      3
                        a                      a                      a 
 Frequencies --   528.8792               576.5561               686.2925
 Red. masses --     7.6240                12.1083                 7.9595
 Frc consts  --     0.0000                 0.0000                 0.0000
 IR Inten    --   128.2181                 6.5388               385.4638
 Raman Activ --     0.0000                 0.0000                 0.0000
 Depolar     --     0.0000                 0.0000                 0.0000
 Atom AN      X      Y      Z        X      Y      Z        X      Y      Z
   1   6    -0.14  -0.60   0.16    -0.23  -0.15  -0.79     0.12   0.54  -0.14
   2   8     0.10   0.33  -0.09     0.11   0.07   0.37    -0.10  -0.16   0.06
   3   8    -0.09   0.09   0.01     0.07   0.05   0.25    -0.14  -0.40   0.12
   4   1     0.48   0.41  -0.22     0.07   0.05   0.25     0.53   0.34  -0.22
                      4                      5                      6
                        a                      a                      a 
 Frequencies --  1344.3782              2552.7661              3139.2265
 Red. masses --    15.4522                13.1108                 1.9573
 Frc consts  --     0.0000                 0.0000                 0.0000
 IR Inten    --    29.5516               836.2372               654.4383
 Raman Activ --     0.0000                 0.0000                 0.0000
 Depolar     --     0.0000                 0.0000                 0.0000
 Atom AN      X      Y      Z        X      Y      Z        X      Y      Z
   1   6     0.15   0.02  -0.05     0.79  -0.24  -0.18    -0.00  -0.00   0.00
   2   8     0.60  -0.19  -0.13    -0.44   0.15   0.10    -0.01   0.00   0.00
   3   8    -0.69   0.15   0.17    -0.22   0.06   0.05     0.16  -0.19  -0.01
   4   1    -0.15   0.08   0.03    -0.06   0.01   0.01    -0.58   0.77   0.02
