      -----------------------------------------------------------      
     |                   =====================                   |     
     |                           x T B                           |     
     |                   =====================                   |     
     |                         S. Grimme                         |     
     |          Mulliken Center for Theoretical Chemistry        |     
     |                    University of Bonn                     |     
      -----------------------------------------------------------      

   * xtb version 6.7.1 (edcfbbe) compiled by 'conda@afd1a870197c' on 2025-04-11

   xtb is free software: you can redistribute it and/or modify it under
   the terms of the GNU Lesser General Public License as published by
   the Free Software Foundation, either version 3 of the License, or
   (at your option) any later version.
   
   xtb is distributed in the hope that it will be useful,
   but WITHOUT ANY WARRANTY; without even the implied warranty of
   MERCHANTABILITY or FITNESS FOR A PARTICULAR PURPOSE.  See the
   GNU Lesser General Public License for more details.
   
   Cite this work as:
   * C. Bannwarth, E. Caldeweyher, S. Ehlert, A. Hansen, P. Pracht,
     J. Seibert, S. Spicher, S. Grimme, WIREs Comput. Mol. Sci., 2020, 11,
     e01493. DOI: 10.1002/wcms.1493
   
   for GFN2-xTB:
   * C. Bannwarth, S. Ehlert and S. Grimme., J. Chem. Theory Comput., 2019,
     15, 1652-1671. DOI: 10.1021/acs.jctc.8b01176
   for GFN1-xTB:
   * S. Grimme, C. Bannwarth, P. Shushkov, J. Chem. Theory Comput., 2017,
     13, 1989-2009. DOI: 10.1021/acs.jctc.7b00118
   for GFN0-xTB:
   * P. Pracht, E. Caldeweyher, S. Ehlert, S. Grimme, ChemRxiv, 2019, preprint.
     DOI: 10.26434/chemrxiv.8326202.v1
   for GFN-FF:
   * S. Spicher and S. Grimme, Angew. Chem. Int. Ed., 2020, 59, 15665-15673.
     DOI: 10.1002/anie.202004239
   
   for ALPB and GBSA implicit solvation:
   * S. Ehlert, M. Stahn, S. Spicher, S. Grimme, J. Chem. Theory Comput.,
     2021, 17, 4250-4261. DOI: 10.1021/acs.jctc.1c00471
   
   for ddCOSMO and CPCM-X implicit solvation:
   * M. Stahn, S. Ehlert, S. Grimme, J. Phys. Chem. A,
     2023, XX, XXXX-XXXX. DOI: 10.1021/acs.jpca.3c04382
   
   for DFT-D4:
   * E. Caldeweyher, C. Bannwarth and S. Grimme, J. Chem. Phys., 2017,
     147, 034112. DOI: 10.1063/1.4993215
   * E. Caldeweyher, S. Ehlert, A. Hansen, H. Neugebauer, S. Spicher,
     C. Bannwarth and S. Grimme, J. Chem. Phys., 2019, 150, 154122.
     DOI: 10.1063/1.5090222
   * E. Caldeweyher, J.-M. Mewes, S. Ehlert and S. Grimme, Phys. Chem. Chem. Phys.
     2020, 22, 8499-8512. DOI: 10.1039/D0CP00502A
   
   for sTDA-xTB:
   * S. Grimme and C. Bannwarth, J. Chem. Phys., 2016, 145, 054103.
     DOI: 10.1063/1.4959605
   
   in the mass-spec context:
   * V. Asgeirsson, C. Bauer and S. Grimme, Chem. Sci., 2017, 8, 4879.
     DOI: 10.1039/c7sc00601b
   * J. Koopman and S. Grimme, ACS Omega 2019, 4, 12, 15120-15133.
     DOI: 10.1021/acsomega.9b02011
   
   for metadynamics refer to:
   * S. Grimme, J. Chem. Theory Comput., 2019, 155, 2847-2862
     DOI: 10.1021/acs.jctc.9b00143
   
   for SPH calculations refer to:
   * S. Spicher and S. Grimme, J. Chem. Theory Comput., 2021, 17, 1701-1714
     DOI: 10.1021/acs.jctc.0c01306
   
   for ONIOM refer to:
   * C. Plett, A. Katbashev, S. Ehlert, S. Grimme, M. Bursch,
     Phys. Chem. Chem. Phys., 2023, 25, 17860-17868. DOI: 10.1039/D3CP02178E
   
   for DIPRO refer to:
   * J. Kohn, N. Gildemeister, S. Grimme, D. Fazzi, A. Hansen,
     J. Chem. Phys., 2023, just accepted.
   
   for PTB refer to:
   * S. Grimme, M. Mueller, A. Hansen, J. Chem. Phys., 2023, 158, 124111.
     DOI: 10.1063/5.0137838
   
   with help from (in alphabetical order)
   P. Atkinson, C. Bannwarth, F. Bohle, G. Brandenburg, E. Caldeweyher
   M. Checinski, S. Dohm, S. Ehlert, S. Ehrlich, I. Gerasimov, C. Hölzer
   A. Katbashev, J. Kohn, J. Koopman, C. Lavigne, S. Lehtola, F. März, M. Müller,
   F. Musil, H. Neugebauer, J. Pisarek, C. Plett, P. Pracht, F. Pultar,
   J. Seibert, P. Shushkov, S. Spicher, M. Stahn, M. Steiner, T. Strunk,
   J. Stückrath, T. Rose, and J. Unsleber
   
 * started run on 2025/06/07 at 21:26:37.880     
   ID    Z sym.   atoms
    1    6 C      1
    2    8 O      2, 3
    3    1 H      4

           -------------------------------------------------
          |                Calculation Setup                |
           -------------------------------------------------

          program call               : xtb xtbin.xyz --bhess --gfn2 --etemp 300
          coordinate file            : xtbin.xyz
          omp threads                :                     1


           -------------------------------------------------
          |                 G F N 2 - x T B                 |
           -------------------------------------------------

        Reference                      10.1021/acs.jctc.8b01176
      * Hamiltonian:
        H0-scaling (s, p, d)           1.850000    2.230000    2.230000
        zeta-weighting                 0.500000
      * Dispersion:
        s8                             2.700000
        a1                             0.520000
        a2                             5.000000
        s9                             5.000000
      * Repulsion:
        kExp                           1.500000    1.000000
        rExp                           1.000000
      * Coulomb:
        alpha                          2.000000
        third order                    shell-resolved
        anisotropic                    true
        a3                             3.000000
        a5                             4.000000
        cn-shift                       1.200000
        cn-exp                         4.000000
        max-rad                        5.000000


          ...................................................
          :                      SETUP                      :
          :.................................................:
          :  # basis functions                  13          :
          :  # atomic orbitals                  13          :
          :  # shells                            7          :
          :  # electrons                        16          :
          :  max. iterations                   250          :
          :  Hamiltonian                  GFN2-xTB          :
          :  restarted?                      false          :
          :  GBSA solvation                  false          :
          :  PC potential                    false          :
          :  electronic temp.          300.0000000     K    :
          :  accuracy                    1.0000000          :
          :  -> integral cutoff          0.2500000E+02      :
          :  -> integral neglect         0.1000000E-07      :
          :  -> SCF convergence          0.1000000E-05 Eh   :
          :  -> wf. convergence          0.1000000E-03 e    :
          :  Broyden damping             0.4000000          :
          :  net charge                          1          :
          :  unpaired electrons                  0          :
          ...................................................

 iter      E             dE          RMSdq      gap      omega  full diag
   1    -10.3810143 -0.103810E+02  0.677E+00    7.62       0.0  T
   2    -10.3824238 -0.140956E-02  0.404E+00    7.63       1.0  T
   3    -10.3825094 -0.855662E-04  0.390E-01    7.50       1.0  T
   4    -10.3827730 -0.263573E-03  0.150E-01    7.52       1.0  T
   5    -10.3827817 -0.869181E-05  0.590E-02    7.55       1.0  T
   6    -10.3827906 -0.899096E-05  0.156E-02    7.54       3.2  T
   7    -10.3827907 -0.732339E-07  0.871E-03    7.53       5.7  T
   8    -10.3827909 -0.203563E-06  0.614E-04    7.53      81.5  T
   9    -10.3827909 -0.529745E-10  0.225E-04    7.53     222.6  T

   *** convergence criteria satisfied after 9 iterations ***

         #    Occupation            Energy/Eh            Energy/eV
      -------------------------------------------------------------
         1        2.0000           -1.1116370             -30.2492
         2        2.0000           -1.0974403             -29.8629
         3        2.0000           -0.9992715             -27.1916
         4        2.0000           -0.9635341             -26.2191
         5        2.0000           -0.9619361             -26.1756
         6        2.0000           -0.9013595             -24.5272
         7        2.0000           -0.8613910             -23.4396
         8        2.0000           -0.8378711             -22.7996 (HOMO)
         9                         -0.5610171             -15.2661 (LUMO)
        10                         -0.5316466             -14.4668
        11                         -0.2474348              -6.7330
        12                          0.0132141               0.3596
        13                          0.9966611              27.1205
      -------------------------------------------------------------
                  HL-Gap            0.2768539 Eh            7.5336 eV
             Fermi-level           -0.6994441 Eh          -19.0328 eV

 SCC (total)                   0 d,  0 h,  0 min,  0.002 sec
 SCC setup                      ...        0 min,  0.000 sec (  3.616%)
 Dispersion                     ...        0 min,  0.000 sec (  0.995%)
 classical contributions        ...        0 min,  0.000 sec (  0.465%)
 integral evaluation            ...        0 min,  0.000 sec ( 12.777%)
 iterations                     ...        0 min,  0.001 sec ( 57.745%)
 molecular gradient             ...        0 min,  0.001 sec ( 20.114%)
 printout                       ...        0 min,  0.000 sec (  3.775%)

         :::::::::::::::::::::::::::::::::::::::::::::::::::::
         ::                     SUMMARY                     ::
         :::::::::::::::::::::::::::::::::::::::::::::::::::::
         :: total energy             -10.259099632951 Eh    ::
         :: gradient norm              0.039472160801 Eh/a0 ::
         :: HOMO-LUMO gap              7.533579148389 eV    ::
         ::.................................................::
         :: SCC energy               -10.382790934464 Eh    ::
         :: -> isotropic ES            0.177570014676 Eh    ::
         :: -> anisotropic ES         -0.006210291101 Eh    ::
         :: -> anisotropic XC          0.001381464400 Eh    ::
         :: -> dispersion             -0.000680151514 Eh    ::
         :: repulsion energy           0.123691301512 Eh    ::
         :: add. restraining           0.000000000000 Eh    ::
         :: total charge               1.000000000000 e     ::
         :::::::::::::::::::::::::::::::::::::::::::::::::::::

metadynamics with 1 initial structures loaded
           -------------------------------------------------
          |           Optimal kpush determination           |
           -------------------------------------------------
      ----------------------------------------------------------- 
     |                   =====================                   |
     |                        A N C O P T                        |
     |                   =====================                   |
     |               Approximate Normal Coordinate               |
     |                Rational Function Optimizer                |
      ----------------------------------------------------------- 
target rmsd / Å         0.100000
unbiased initial rmsd   0.085103

iter. min.        max.        rmsd       kpush
final kpush: -0.000000
           -------------------------------------------------
          |            Biased Numerical Hessian             |
           -------------------------------------------------
kpush                :  -0.00000
alpha                :   1.00000
step length          :   0.00500
SCC accuracy         :   0.30000
Hessian scale factor :   1.00000
frozen atoms in %    :   0.00000    0
RMS gradient         :   0.00031
estimated CPU  time      0.00 min
estimated wall time      0.00 min

writing file <hessian>.

 projected vibrational frequencies (cm⁻¹)
eigval :       -0.00    -0.00    -0.00    -0.00     0.00     0.00
eigval :      528.88   576.56   686.29  1344.38  2552.77  3139.23
           -------------------------------------------------
          |                Property Printout                |
           -------------------------------------------------

    * Orbital Energies and Occupations

         #    Occupation            Energy/Eh            Energy/eV
      -------------------------------------------------------------
         1        2.0000           -1.1105119             -30.2186
         2        2.0000           -1.0908098             -29.6824
         3        2.0000           -1.0010479             -27.2399
         4        2.0000           -0.9612470             -26.1569
         5        2.0000           -0.9609212             -26.1480
         6        2.0000           -0.8928281             -24.2951
         7        2.0000           -0.8470317             -23.0489
         8        2.0000           -0.8324739             -22.6528 (HOMO)
         9                         -0.5396840             -14.6855 (LUMO)
        10                         -0.5138924             -13.9837
        11                         -0.2782011              -7.5702
        12                          0.1125035               3.0614
        13                          1.0998950              29.9297
      -------------------------------------------------------------
                  HL-Gap            0.2927899 Eh            7.9672 eV
             Fermi-level           -0.6860790 Eh          -18.6692 eV

     #   Z          covCN         q      C6AA      α(0)
     1   6 C        1.711     0.506    20.928     7.406
     2   8 O        0.856     0.069    14.225     5.057
     3   8 O        1.658    -0.068    15.405     5.298
     4   1 H        0.802     0.494     0.345     0.922

 Mol. C6AA /au·bohr⁶  :        163.984021
 Mol. C8AA /au·bohr⁸  :       3716.509343
 Mol. α(0) /au        :         18.683482


Wiberg/Mayer (AO) data.
largest (>0.10) Wiberg bond orders for each atom

 ---------------------------------------------------------------------------
     #   Z sym  total        # sym  WBO       # sym  WBO       # sym  WBO
 ---------------------------------------------------------------------------
     1   6 C    3.927 --     2 O    2.299     3 O    1.620
     2   8 O    2.663 --     1 C    2.299     3 O    0.331
     3   8 O    2.664 --     1 C    1.620     4 H    0.713     2 O    0.331
     4   1 H    0.756 --     3 O    0.713
 ---------------------------------------------------------------------------

Topologies differ in total number of bonds
Writing topology from bond orders to xtbtopo.mol

molecular dipole:
                 x           y           z       tot (Debye)
 q only:       -0.293       5.527      -0.065
   full:       -0.476       5.725      -0.050      14.603
molecular quadrupole (traceless):
                xx          xy          yy          xz          yz          zz
 q only:      -12.419      -5.391      29.878      -0.865      -0.002     -17.459
  q+dip:      -13.979      -7.116      32.399      -0.589       0.113     -18.420
   full:      -15.123      -6.468      32.926      -0.180      -0.040     -17.803

           -------------------------------------------------
          |                Geometry Summary                 |
           -------------------------------------------------

      molecular mass/u    :       45.0174865
   center of mass at/Å    :        0.4710540       2.4415173      -0.1217570
  moments of inertia/u·Å² :        0.3763478E+00   0.4590347E+02   0.4627981E+02
rotational constants/cm⁻¹ :        0.4479270E+02   0.3672409E+00   0.3642545E+00

 * 3 selected distances

     #   Z          #   Z                                           value/Å
     1   6 C        2   8 O                                       1.1141650
     1   6 C        3   8 O                                       1.1871307 (max)
     3   8 O        4   1 H                                       0.9847757 (min)

 * 2 distinct bonds (by element types)

   Z      Z             #   av. dist./Å        max./Å        min./Å
   1 H    8 O           1     0.9847757     0.9847757     0.9847757
   6 C    8 O           2     1.1506478     1.1871307     1.1141650

           -------------------------------------------------
Refinement of some symmetry elements was terminated before convergence was reached.
Some symmetry elements may remain unidentified.
Molecule has no symmetry elements
It seems to be the C1 point group
          |               Frequency Printout                |
           -------------------------------------------------
 projected vibrational frequencies (cm⁻¹)
eigval :       -0.00    -0.00    -0.00    -0.00     0.00     0.00
eigval :      528.88   576.56   686.29  1344.38  2552.77  3139.23
 reduced masses (amu)
   1:  2.09   2: 14.90   3: 15.07   4: 15.03   5: 14.94   6: 14.82   7:  7.62   8: 12.11
   9:  7.96  10: 15.45  11: 13.11  12:  1.96
 IR intensities (km·mol⁻¹)
   1:374.74   2: 12.32   3: 10.85   4: 23.82   5: 10.50   6: 20.23   7:128.22   8:  6.54
   9:385.46  10: 29.55  11:836.24  12:654.44
 Raman intensities (Ä⁴*amu⁻¹)
   1:  0.00   2:  0.00   3:  0.00   4:  0.00   5:  0.00   6:  0.00   7:  0.00   8:  0.00
   9:  0.00  10:  0.00  11:  0.00  12:  0.00
 output can be read by thermo (or use thermo option).
 writing <g98.out> molden fake output.
 recommended (thermochemical) frequency scaling factor: 1.0
           -------------------------------------------------
          |             Thermodynamic Functions             |
           -------------------------------------------------

c1  symmetry found (for desy threshold:  0.10E+00) used in thermo

          ...................................................
          :                      SETUP                      :
          :.................................................:
          :  # frequencies                           6      :
          :  # imaginary freq.                       0      :
          :  linear?                             false      :
          :  only rotor calc.                    false      :
          :  symmetry                               c1      :
          :  rotational number                       1      :
          :  scaling factor                  1.0000000      :
          :  rotor cutoff                   50.0000000 cm⁻¹ :
          :  imag. cutoff                  -20.0000000 cm⁻¹ :
          :.................................................:

    mode    ω/cm⁻¹     T·S(HO)/kcal·mol⁻¹    T·S(FR)/kcal·mol⁻¹   T·S(vib)
   ------------------------------------------------------------------------
   ------------------------------------------------------------------------

   temp. (K)  partition function   enthalpy   heat capacity  entropy
                                   cal/mol     cal/K/mol   cal/K/mol   J/K/mol
 298.15  VIB   1.20                  316.663      3.253      1.427
         ROT  0.216E+04              888.752      2.981     18.239
         INT  0.260E+04             1205.415      6.234     19.666
         TR   0.292E+27             1481.254      4.968     37.322
         TOT                        2686.6694    11.2020    56.9880   238.4379

       T/K    H(0)-H(T)+PV         H(T)/Eh          T*S/Eh         G(T)/Eh
   ------------------------------------------------------------------------
    298.15    0.428148E-02    0.243934E-01    0.270769E-01   -0.268349E-02
   ------------------------------------------------------------------------

         :::::::::::::::::::::::::::::::::::::::::::::::::::::
         ::                  THERMODYNAMIC                  ::
         :::::::::::::::::::::::::::::::::::::::::::::::::::::
         :: total free energy         -10.264266532472 Eh   ::
         ::.................................................::
         :: total energy              -10.261583047291 Eh   ::
         :: zero point energy           0.020111888510 Eh   ::
         :: G(RRHO) w/o ZPVE           -0.022795373692 Eh   ::
         :: G(RRHO) contrib.           -0.002683485182 Eh   ::
         :::::::::::::::::::::::::::::::::::::::::::::::::::::

optimized geometry written to: xtbopt.xyz


           -------------------------------------------------
          | TOTAL ENERGY              -10.261583047291 Eh   |
          | TOTAL ENTHALPY            -10.237189678574 Eh   |
          | TOTAL FREE ENERGY         -10.264266532472 Eh   |
          | GRADIENT NORM               0.000306172079 Eh/α |
          | HOMO-LUMO GAP               7.967218969258 eV   |
           -------------------------------------------------

------------------------------------------------------------------------
 * finished run on 2025/06/07 at 21:26:37.935     
------------------------------------------------------------------------
 total:
 * wall-time:     0 d,  0 h,  0 min,  0.056 sec
 *  cpu-time:     0 d,  0 h,  0 min,  0.056 sec
 * ratio c/w:     0.999 speedup
 SCF:
 * wall-time:     0 d,  0 h,  0 min,  0.003 sec
 *  cpu-time:     0 d,  0 h,  0 min,  0.003 sec
 * ratio c/w:     1.000 speedup
 analytical hessian:
 * wall-time:     0 d,  0 h,  0 min,  0.032 sec
 *  cpu-time:     0 d,  0 h,  0 min,  0.032 sec
 * ratio c/w:     1.000 speedup

