4
 energy: -10.259099633054 gnorm: 0.039473073734 xtb: 6.7.1 (edcfbbe)
C            0.50997004127995        2.43973848814289       -0.13230588299973
O            1.56517096137654        2.17082164761725       -0.38756529183409
O           -0.64835834359704        2.62552135035703        0.16915753537201
H           -1.06138987905945        3.51563871388282        0.11229184946182
4
 energy: -10.260025796036 gnorm: 0.018926914148 xtb: 6.7.1 (edcfbbe)
C            0.51141129415898        2.44103878608073       -0.13314335203041
O            1.55910743249580        2.16695700856250       -0.38444575756074
O           -0.63378534716976        2.63015682752377        0.16331298370767
H           -1.07134059948502        3.51356757783299        0.11585433588349
4
 energy: -10.260716129109 gnorm: 0.015387802174 xtb: 6.7.1 (edcfbbe)
C            0.51752783080304        2.44326770671528       -0.13525139748915
O            1.56161574767685        2.15345399371331       -0.38255545562580
O           -0.61550205881963        2.64399662663923        0.15515695138596
H           -1.09824873966025        3.51100187293217        0.12422811172900
4
 energy: -10.261219150946 gnorm: 0.018705223528 xtb: 6.7.1 (edcfbbe)
C            0.52864397905165        2.44575920190554       -0.13909749428285
O            1.56940398526753        2.13487470344298       -0.38044909762939
O           -0.59945344060563        2.66426784204215        0.14554079567852
H           -1.13320174371355        3.50681845260932        0.13558400623374
4
 energy: -10.261487884967 gnorm: 0.011033652174 xtb: 6.7.1 (edcfbbe)
C            0.53826682240770        2.44831765809753       -0.14219549191600
O            1.57608459737077        2.11976050361935       -0.37973486912347
O           -0.59005235957580        2.68332041212882        0.13922808575948
H           -1.15890628020267        3.50032162615429        0.14428048527999
4
 energy: -10.261569616680 gnorm: 0.003340202633 xtb: 6.7.1 (edcfbbe)
C            0.54141589239323        2.45002901387553       -0.14363897384573
O            1.57791287903662        2.11430696467341       -0.37853428910921
O           -0.58767535320929        2.69268752050953        0.13592933069415
H           -1.16626063822055        3.49469670094153        0.14782214226080
4
 energy: -10.261582110329 gnorm: 0.001160582004 xtb: 6.7.1 (edcfbbe)
C            0.54201604325596        2.45103137908573       -0.14394029258188
O            1.57754799828896        2.11259353452887       -0.37826186405857
O           -0.58631517639309        2.69633588477284        0.13497310418122
H           -1.16785608515183        3.49175940161254        0.14880726245924
4
 energy: -10.261583047238 gnorm: 0.000307492069 xtb: 6.7.1 (edcfbbe)
C            0.54217090757852        2.45150433281334       -0.14430653307697
O            1.57740134189554        2.11190449017444       -0.37740147072107
O           -0.58540891431046        2.69753802388071        0.13374042646107
H           -1.16877055516359        3.49077335313150        0.14954578733699
