 Entering Gaussian System
 *********************************************
 Gaussian 98:
 frequency output generated by the xtb code
 *********************************************
                         Standard orientation:
 --------------------------------------------------------------------
  Center     Atomic     Atomic              Coordinates (Angstroms)
  Number     Number      Type              X           Y           Z
 --------------------------------------------------------------------
    1          6             0       -1.528102    4.244037   -0.238500
    2          8             0       -2.133598    3.619879    0.419594
    3          1             0       -0.918728    4.872078   -0.901380
 --------------------------------------------------------------------
     1 basis functions        1 primitive gaussians
     1 alpha electrons        1 beta electrons

 Harmonic frequencies (cm**-1), IR intensities (km*mol⁻¹),
 Raman scattering activities (A**4/amu), Raman depolarization ratios,
 reduced masses (AMU), force constants (mDyne/A) and normal coordinates:
                      1                      2                      3
                        a                      a                      a 
 Frequencies --   856.8392               856.8437              2284.8444
 Red. masses --     4.3412                 4.3412                10.4965
 Frc consts  --     0.0000                 0.0000                 0.0000
 IR Inten    --    60.8202                60.8203               174.9104
 Raman Activ --     0.0000                 0.0000                 0.0000
 Depolar     --     0.0000                 0.0000                 0.0000
 Atom AN      X      Y      Z        X      Y      Z        X      Y      Z
   1   6    -0.14  -0.27  -0.38    -0.38   0.30  -0.07    -0.32  -0.33   0.34
   2   8     0.06   0.12   0.17     0.17  -0.13   0.03     0.35   0.36  -0.38
   3   1     0.24   0.47   0.66     0.66  -0.51   0.12    -0.29  -0.30   0.32
                      4
                        a 
 Frequencies --  2971.9673
 Red. masses --     4.6938
 Frc consts  --     0.0000
 IR Inten    --   160.4087
 Raman Activ --     0.0000
 Depolar     --     0.0000
 Atom AN      X      Y      Z        X      Y      Z        X      Y      Z
   1   6     0.28   0.29  -0.31
   2   8    -0.13  -0.13   0.14
   3   1    -0.46  -0.47   0.50
