      -----------------------------------------------------------      
     |                   =====================                   |     
     |                           x T B                           |     
     |                   =====================                   |     
     |                         S. Grimme                         |     
     |          Mulliken Center for Theoretical Chemistry        |     
     |                    University of Bonn                     |     
      -----------------------------------------------------------      

   * xtb version 6.7.1 (edcfbbe) compiled by 'conda@afd1a870197c' on 2025-04-11

   xtb is free software: you can redistribute it and/or modify it under
   the terms of the GNU Lesser General Public License as published by
   the Free Software Foundation, either version 3 of the License, or
   (at your option) any later version.
   
   xtb is distributed in the hope that it will be useful,
   but WITHOUT ANY WARRANTY; without even the implied warranty of
   MERCHANTABILITY or FITNESS FOR A PARTICULAR PURPOSE.  See the
   GNU Lesser General Public License for more details.
   
   Cite this work as:
   * C. Bannwarth, E. Caldeweyher, S. Ehlert, A. Hansen, P. Pracht,
     J. Seibert, S. Spicher, S. Grimme, WIREs Comput. Mol. Sci., 2020, 11,
     e01493. DOI: 10.1002/wcms.1493
   
   for GFN2-xTB:
   * C. Bannwarth, S. Ehlert and S. Grimme., J. Chem. Theory Comput., 2019,
     15, 1652-1671. DOI: 10.1021/acs.jctc.8b01176
   for GFN1-xTB:
   * S. Grimme, C. Bannwarth, P. Shushkov, J. Chem. Theory Comput., 2017,
     13, 1989-2009. DOI: 10.1021/acs.jctc.7b00118
   for GFN0-xTB:
   * P. Pracht, E. Caldeweyher, S. Ehlert, S. Grimme, ChemRxiv, 2019, preprint.
     DOI: 10.26434/chemrxiv.8326202.v1
   for GFN-FF:
   * S. Spicher and S. Grimme, Angew. Chem. Int. Ed., 2020, 59, 15665-15673.
     DOI: 10.1002/anie.202004239
   
   for ALPB and GBSA implicit solvation:
   * S. Ehlert, M. Stahn, S. Spicher, S. Grimme, J. Chem. Theory Comput.,
     2021, 17, 4250-4261. DOI: 10.1021/acs.jctc.1c00471
   
   for ddCOSMO and CPCM-X implicit solvation:
   * M. Stahn, S. Ehlert, S. Grimme, J. Phys. Chem. A,
     2023, XX, XXXX-XXXX. DOI: 10.1021/acs.jpca.3c04382
   
   for DFT-D4:
   * E. Caldeweyher, C. Bannwarth and S. Grimme, J. Chem. Phys., 2017,
     147, 034112. DOI: 10.1063/1.4993215
   * E. Caldeweyher, S. Ehlert, A. Hansen, H. Neugebauer, S. Spicher,
     C. Bannwarth and S. Grimme, J. Chem. Phys., 2019, 150, 154122.
     DOI: 10.1063/1.5090222
   * E. Caldeweyher, J.-M. Mewes, S. Ehlert and S. Grimme, Phys. Chem. Chem. Phys.
     2020, 22, 8499-8512. DOI: 10.1039/D0CP00502A
   
   for sTDA-xTB:
   * S. Grimme and C. Bannwarth, J. Chem. Phys., 2016, 145, 054103.
     DOI: 10.1063/1.4959605
   
   in the mass-spec context:
   * V. Asgeirsson, C. Bauer and S. Grimme, Chem. Sci., 2017, 8, 4879.
     DOI: 10.1039/c7sc00601b
   * J. Koopman and S. Grimme, ACS Omega 2019, 4, 12, 15120-15133.
     DOI: 10.1021/acsomega.9b02011
   
   for metadynamics refer to:
   * S. Grimme, J. Chem. Theory Comput., 2019, 155, 2847-2862
     DOI: 10.1021/acs.jctc.9b00143
   
   for SPH calculations refer to:
   * S. Spicher and S. Grimme, J. Chem. Theory Comput., 2021, 17, 1701-1714
     DOI: 10.1021/acs.jctc.0c01306
   
   for ONIOM refer to:
   * C. Plett, A. Katbashev, S. Ehlert, S. Grimme, M. Bursch,
     Phys. Chem. Chem. Phys., 2023, 25, 17860-17868. DOI: 10.1039/D3CP02178E
   
   for DIPRO refer to:
   * J. Kohn, N. Gildemeister, S. Grimme, D. Fazzi, A. Hansen,
     J. Chem. Phys., 2023, just accepted.
   
   for PTB refer to:
   * S. Grimme, M. Mueller, A. Hansen, J. Chem. Phys., 2023, 158, 124111.
     DOI: 10.1063/5.0137838
   
   with help from (in alphabetical order)
   P. Atkinson, C. Bannwarth, F. Bohle, G. Brandenburg, E. Caldeweyher
   M. Checinski, S. Dohm, S. Ehlert, S. Ehrlich, I. Gerasimov, C. Hölzer
   A. Katbashev, J. Kohn, J. Koopman, C. Lavigne, S. Lehtola, F. März, M. Müller,
   F. Musil, H. Neugebauer, J. Pisarek, C. Plett, P. Pracht, F. Pultar,
   J. Seibert, P. Shushkov, S. Spicher, M. Stahn, M. Steiner, T. Strunk,
   J. Stückrath, T. Rose, and J. Unsleber
   
 * started run on 2025/06/07 at 21:26:37.952     
   ID    Z sym.   atoms
    1    6 C      1
    2    8 O      2
    3    1 H      3

           -------------------------------------------------
          |                Calculation Setup                |
           -------------------------------------------------

          program call               : xtb xtbin.xyz --bhess --gfn2 --etemp 300
          coordinate file            : xtbin.xyz
          omp threads                :                     1


           -------------------------------------------------
          |                 G F N 2 - x T B                 |
           -------------------------------------------------

        Reference                      10.1021/acs.jctc.8b01176
      * Hamiltonian:
        H0-scaling (s, p, d)           1.850000    2.230000    2.230000
        zeta-weighting                 0.500000
      * Dispersion:
        s8                             2.700000
        a1                             0.520000
        a2                             5.000000
        s9                             5.000000
      * Repulsion:
        kExp                           1.500000    1.000000
        rExp                           1.000000
      * Coulomb:
        alpha                          2.000000
        third order                    shell-resolved
        anisotropic                    true
        a3                             3.000000
        a5                             4.000000
        cn-shift                       1.200000
        cn-exp                         4.000000
        max-rad                        5.000000


          ...................................................
          :                      SETUP                      :
          :.................................................:
          :  # basis functions                   9          :
          :  # atomic orbitals                   9          :
          :  # shells                            5          :
          :  # electrons                        10          :
          :  max. iterations                   250          :
          :  Hamiltonian                  GFN2-xTB          :
          :  restarted?                      false          :
          :  GBSA solvation                  false          :
          :  PC potential                    false          :
          :  electronic temp.          300.0000000     K    :
          :  accuracy                    1.0000000          :
          :  -> integral cutoff          0.2500000E+02      :
          :  -> integral neglect         0.1000000E-07      :
          :  -> SCF convergence          0.1000000E-05 Eh   :
          :  -> wf. convergence          0.1000000E-03 e    :
          :  Broyden damping             0.4000000          :
          :  net charge                          1          :
          :  unpaired electrons                  0          :
          ...................................................

 iter      E             dE          RMSdq      gap      omega  full diag
   1     -6.2018174 -0.620182E+01  0.766E+00    7.34       0.0  T
   2     -6.2129715 -0.111540E-01  0.537E+00    7.42       1.0  T
   3     -6.2160193 -0.304779E-02  0.274E+00    7.14       1.0  T
   4     -6.2222817 -0.626243E-02  0.171E-01    7.05       1.0  T
   5     -6.2222979 -0.162240E-04  0.497E-02    7.10       1.2  T
   6     -6.2223041 -0.619802E-05  0.800E-03    7.09       7.2  T
   7     -6.2223042 -0.385356E-07  0.209E-03    7.09      27.6  T
   8     -6.2223042 -0.128426E-07  0.507E-04    7.09     113.8  T
   9     -6.2223042 -0.241975E-09  0.148E-05    7.09    3903.1  T

   *** convergence criteria satisfied after 9 iterations ***

         #    Occupation            Energy/Eh            Energy/eV
      -------------------------------------------------------------
         1        2.0000           -1.1547256             -31.4217
         2        2.0000           -1.0021564             -27.2701
         3        2.0000           -0.9831890             -26.7539
         4        2.0000           -0.9831890             -26.7539
         5        2.0000           -0.8966818             -24.4000 (HOMO)
         6                         -0.6360888             -17.3089 (LUMO)
         7                         -0.6360887             -17.3089
         8                         -0.2544539              -6.9240
         9                          0.8036970              21.8697
      -------------------------------------------------------------
                  HL-Gap            0.2605930 Eh            7.0911 eV
             Fermi-level           -0.7663853 Eh          -20.8544 eV

 SCC (total)                   0 d,  0 h,  0 min,  0.002 sec
 SCC setup                      ...        0 min,  0.000 sec (  5.409%)
 Dispersion                     ...        0 min,  0.000 sec (  0.680%)
 classical contributions        ...        0 min,  0.000 sec (  0.608%)
 integral evaluation            ...        0 min,  0.000 sec ( 10.236%)
 iterations                     ...        0 min,  0.001 sec ( 63.705%)
 molecular gradient             ...        0 min,  0.000 sec ( 13.976%)
 printout                       ...        0 min,  0.000 sec (  4.668%)

         :::::::::::::::::::::::::::::::::::::::::::::::::::::
         ::                     SUMMARY                     ::
         :::::::::::::::::::::::::::::::::::::::::::::::::::::
         :: total energy              -6.121837707314 Eh    ::
         :: gradient norm              0.040294891510 Eh/a0 ::
         :: HOMO-LUMO gap              7.091097144556 eV    ::
         ::.................................................::
         :: SCC energy                -6.222304167644 Eh    ::
         :: -> isotropic ES            0.188115097251 Eh    ::
         :: -> anisotropic ES         -0.020706875789 Eh    ::
         :: -> anisotropic XC          0.006526833197 Eh    ::
         :: -> dispersion             -0.000274803101 Eh    ::
         :: repulsion energy           0.100466460329 Eh    ::
         :: add. restraining           0.000000000000 Eh    ::
         :: total charge               1.000000000000 e     ::
         :::::::::::::::::::::::::::::::::::::::::::::::::::::

metadynamics with 1 initial structures loaded
           -------------------------------------------------
          |           Optimal kpush determination           |
           -------------------------------------------------
      ----------------------------------------------------------- 
     |                   =====================                   |
     |                        A N C O P T                        |
     |                   =====================                   |
     |               Approximate Normal Coordinate               |
     |                Rational Function Optimizer                |
      ----------------------------------------------------------- 
target rmsd / Å         0.100000
unbiased initial rmsd   0.005045

iter. min.        max.        rmsd       kpush
final kpush: -0.000000
           -------------------------------------------------
          |            Biased Numerical Hessian             |
           -------------------------------------------------
kpush                :  -0.00000
alpha                :   1.00000
step length          :   0.00500
SCC accuracy         :   0.30000
Hessian scale factor :   1.00000
frozen atoms in %    :   0.00000    0
RMS gradient         :   0.00018
estimated CPU  time      0.00 min
estimated wall time      0.00 min

writing file <hessian>.

 vibrational frequencies (cm⁻¹)
eigval :        0.00     0.00     0.00     0.00     0.00   856.84
eigval :      856.84  2284.84  2971.97
           -------------------------------------------------
          |                Property Printout                |
           -------------------------------------------------

    * Orbital Energies and Occupations

         #    Occupation            Energy/Eh            Energy/eV
      -------------------------------------------------------------
         1        2.0000           -1.1568292             -31.4789
         2        2.0000           -1.0036531             -27.3108
         3        2.0000           -0.9861159             -26.8336
         4        2.0000           -0.9861159             -26.8336
         5        2.0000           -0.8957714             -24.3752 (HOMO)
         6                         -0.6310036             -17.1705 (LUMO)
         7                         -0.6310035             -17.1705
         8                         -0.2490695              -6.7775
         9                          0.8645165              23.5247
      -------------------------------------------------------------
                  HL-Gap            0.2647678 Eh            7.2047 eV
             Fermi-level           -0.7633875 Eh          -20.7728 eV

     #   Z          covCN         q      C6AA      α(0)
     1   6 C        1.779     0.334    23.793     7.885
     2   8 O        0.856     0.330    11.353     4.517
     3   1 H        0.924     0.337     0.609     1.221

 Mol. C6AA /au·bohr⁶  :         80.840098
 Mol. C8AA /au·bohr⁸  :       1928.174068
 Mol. α(0) /au        :         13.623116


Wiberg/Mayer (AO) data.
largest (>0.10) Wiberg bond orders for each atom

 ---------------------------------------------------------------------------
     #   Z sym  total        # sym  WBO       # sym  WBO       # sym  WBO
 ---------------------------------------------------------------------------
     1   6 C    3.701 --     2 O    2.843     3 H    0.859
     2   8 O    2.871 --     1 C    2.843
     3   1 H    0.887 --     1 C    0.859
 ---------------------------------------------------------------------------

Topologies differ in total number of bonds
Writing topology from bond orders to xtbtopo.mol

molecular dipole:
                 x           y           z       tot (Debye)
 q only:       -2.877       8.031      -0.463
   full:       -2.798       8.112      -0.548      21.856
molecular quadrupole (traceless):
                xx          xy          yy          xz          yz          zz
 q only:      -24.187     -33.300      60.228       0.565      -7.051     -36.041
  q+dip:      -25.373     -32.195      61.710       0.346      -8.690     -36.337
   full:      -25.298     -33.145      61.728       1.348      -7.657     -36.430

           -------------------------------------------------
          |                Geometry Summary                 |
           -------------------------------------------------

      molecular mass/u    :       29.0180816
   center of mass at/Å    :       -1.8407816       3.9217162       0.1013214
  moments of inertia/u·Å² :        0.1886308E-06   0.1103990E+02   0.1103990E+02
rotational constants/cm⁻¹ :        0.8936838E+08   0.1526973E+01   0.1526973E+01

 * 1 selected distances

     #   Z          #   Z                                           value/Å
     1   6 C        2   8 O                                       1.0905447 (max)

 * 1 distinct bonds (by element types)

   Z      Z             #   av. dist./Å        max./Å        min./Å
   6 C    8 O           1     1.0905447     1.0905447     1.0905447

           -------------------------------------------------
          |               Frequency Printout                |
           -------------------------------------------------
 vibrational frequencies (cm⁻¹)
eigval :        0.00     0.00     0.00     0.00     0.00   856.84
eigval :      856.84  2284.84  2971.97
 reduced masses (amu)
   1: 10.87   2: 10.86   3: 13.83   4: 13.81   5: 13.81   6:  4.34   7:  4.34   8: 10.50
   9:  4.69
 IR intensities (km·mol⁻¹)
   1: 36.89   2: 36.96   3: 33.59   4: 33.77   5: 33.84   6: 60.82   7: 60.82   8:174.91
   9:160.41
 Raman intensities (Ä⁴*amu⁻¹)
   1:  0.00   2:  0.00   3:  0.00   4:  0.00   5:  0.00   6:  0.00   7:  0.00   8:  0.00
   9:  0.00
 output can be read by thermo (or use thermo option).
 writing <g98.out> molden fake output.
 recommended (thermochemical) frequency scaling factor: 1.0
           -------------------------------------------------
          |             Thermodynamic Functions             |
Molecule has the following symmetry elements: (Cinf) (sigma) 
It seems to be the Cinfv point group
           -------------------------------------------------

cin symmetry found (for desy threshold:  0.10E+00) used in thermo

          ...................................................
          :                      SETUP                      :
          :.................................................:
          :  # frequencies                           4      :
          :  # imaginary freq.                       0      :
          :  linear?                              true      :
          :  only rotor calc.                    false      :
          :  symmetry                              cin      :
          :  rotational number                       1      :
          :  scaling factor                  1.0000000      :
          :  rotor cutoff                   50.0000000 cm⁻¹ :
          :  imag. cutoff                  -20.0000000 cm⁻¹ :
          :.................................................:

    mode    ω/cm⁻¹     T·S(HO)/kcal·mol⁻¹    T·S(FR)/kcal·mol⁻¹   T·S(vib)
   ------------------------------------------------------------------------
   ------------------------------------------------------------------------

   temp. (K)  partition function   enthalpy   heat capacity  entropy
                                   cal/mol     cal/K/mol   cal/K/mol   J/K/mol
 298.15  VIB   1.03                   79.809      1.127      0.332
         ROT   136.                  592.502      1.987     11.746
         INT   140.                  672.310      3.115     12.078
         TR   0.151E+27             1481.254      4.968     36.014
         TOT                        2153.5643     8.0828    48.0913   201.2138

       T/K    H(0)-H(T)+PV         H(T)/Eh          T*S/Eh         G(T)/Eh
   ------------------------------------------------------------------------
    298.15    0.343192E-02    0.193119E-01    0.228497E-01   -0.353783E-02
   ------------------------------------------------------------------------

         :::::::::::::::::::::::::::::::::::::::::::::::::::::
         ::                  THERMODYNAMIC                  ::
         :::::::::::::::::::::::::::::::::::::::::::::::::::::
         :: total free energy          -6.125657589593 Eh   ::
         ::.................................................::
         :: total energy               -6.122119757839 Eh   ::
         :: zero point energy           0.015879955316 Eh   ::
         :: G(RRHO) w/o ZPVE           -0.019417787070 Eh   ::
         :: G(RRHO) contrib.           -0.003537831754 Eh   ::
         :::::::::::::::::::::::::::::::::::::::::::::::::::::

optimized geometry written to: xtbopt.xyz


           -------------------------------------------------
          | TOTAL ENERGY               -6.122119757839 Eh   |
          | TOTAL ENTHALPY             -6.102807879333 Eh   |
          | TOTAL FREE ENERGY          -6.125657589593 Eh   |
          | GRADIENT NORM               0.000179310783 Eh/α |
          | HOMO-LUMO GAP               7.204699669330 eV   |
           -------------------------------------------------

------------------------------------------------------------------------
 * finished run on 2025/06/07 at 21:26:37.978     
------------------------------------------------------------------------
 total:
 * wall-time:     0 d,  0 h,  0 min,  0.026 sec
 *  cpu-time:     0 d,  0 h,  0 min,  0.026 sec
 * ratio c/w:     0.999 speedup
 SCF:
 * wall-time:     0 d,  0 h,  0 min,  0.002 sec
 *  cpu-time:     0 d,  0 h,  0 min,  0.002 sec
 * ratio c/w:     0.999 speedup
 analytical hessian:
 * wall-time:     0 d,  0 h,  0 min,  0.013 sec
 *  cpu-time:     0 d,  0 h,  0 min,  0.013 sec
 * ratio c/w:     1.000 speedup

