3
 energy: -6.121837707315 gnorm: 0.040295018819 xtb: 6.7.1 (edcfbbe)
C           -1.52629766041758        4.24595708701533       -0.24025293433238
O           -2.13760133496840        3.61573773594408        0.42380773710939
H           -0.91659218461402        4.87427513704060       -0.90383511277702
3
 energy: -6.122103701174 gnorm: 0.010059281635 xtb: 6.7.1 (edcfbbe)
C           -1.52856468286102        4.24360250428466       -0.23787659095517
O           -2.13280349126242        3.62069220797351        0.41863632906690
H           -0.91912300587656        4.87167524774184       -0.90104004811173
3
 energy: -6.122119725420 gnorm: 0.000336361884 xtb: 6.7.1 (edcfbbe)
C           -1.52809583500250        4.24407436110669       -0.23844291380292
O           -2.13369773793460        3.61977611988639        0.41963665871125
H           -0.91869760706290        4.87211947900693       -0.90147405490834
3
 energy: -6.122119757835 gnorm: 0.000179758316 xtb: 6.7.1 (edcfbbe)
C           -1.52812297638116        4.24402932401552       -0.23849799578300
O           -2.13361842283386        3.61986639400539        0.41959267280078
H           -0.91874978078498        4.87207424197909       -0.90137498701779
