 Entering Gaussian System
 *********************************************
 Gaussian 98:
 frequency output generated by the xtb code
 *********************************************
                         Standard orientation:
 --------------------------------------------------------------------
  Center     Atomic     Atomic              Coordinates (Angstroms)
  Number     Number      Type              X           Y           Z
 --------------------------------------------------------------------
    1          6             0        0.604044   -2.244993    0.190862
    2          6             0       -0.094273   -1.017804   -0.156496
    3          6             0        0.114395    1.315605   -0.130703
    4          8             0        0.594997    0.120895   -0.153633
    5          8             0       -1.112153    1.644510    0.081775
    6          1             0        1.232678   -2.098779    1.073290
    7          1             0       -0.093133   -3.062938    0.347481
    8          1             0        1.300104   -2.537850   -0.605550
    9          1             0       -1.129442   -1.014284   -0.480255
   10          1             0       -1.721887    0.931647    0.353345
   11          1             0        0.818645    2.125409   -0.297787
 --------------------------------------------------------------------
     1 basis functions        1 primitive gaussians
     1 alpha electrons        1 beta electrons

 Harmonic frequencies (cm**-1), IR intensities (km*mol⁻¹),
 Raman scattering activities (A**4/amu), Raman depolarization ratios,
 reduced masses (AMU), force constants (mDyne/A) and normal coordinates:
                      1                      2                      3
                        a                      a                      a 
 Frequencies --   137.7399               197.4709               110.8785
 Red. masses --    10.5736                11.3127                 3.8615
 Frc consts  --     0.0000                 0.0000                 0.0000
 IR Inten    --     0.0911                 1.6160                 6.1647
 Raman Activ --     0.0000                 0.0000                 0.0000
 Depolar     --     0.0000                 0.0000                 0.0000
 Atom AN      X      Y      Z        X      Y      Z        X      Y      Z
   1   6    -0.20   0.12   0.36     0.32  -0.01   0.12     0.01  -0.00   0.12
   2   6     0.09   0.06  -0.42    -0.08  -0.31  -0.22     0.12  -0.08  -0.40
   3   6     0.01   0.00   0.03    -0.03  -0.06   0.10    -0.03   0.01   0.10
   4   8     0.14   0.07  -0.40    -0.38  -0.18  -0.12    -0.04  -0.01   0.17
   5   8    -0.00  -0.25   0.34     0.12   0.51   0.09    -0.04   0.09  -0.01
   6   1    -0.23   0.08   0.22    -0.04   0.08   0.12     0.32   0.19  -0.23
   7   1    -0.09   0.05   0.02     0.17  -0.08  -0.04    -0.05   0.12   0.48
   8   1     0.10  -0.02   0.26     0.23   0.08   0.13    -0.35  -0.36  -0.14
   9   1     0.05   0.02  -0.21    -0.01  -0.16  -0.08     0.06  -0.04  -0.19
  10   1     0.01  -0.11  -0.01    -0.08   0.17  -0.12    -0.01   0.04   0.05
  11   1    -0.03   0.04   0.06     0.07  -0.07   0.10    -0.00  -0.01   0.00
                      4                      5                      6
                        a                      a                      a 
 Frequencies --   344.1716               390.0238               529.5002
 Red. masses --    10.0808                10.2944                 4.7107
 Frc consts  --     0.0000                 0.0000                 0.0000
 IR Inten    --     2.6527                 4.2671               187.6073
 Raman Activ --     0.0000                 0.0000                 0.0000
 Depolar     --     0.0000                 0.0000                 0.0000
 Atom AN      X      Y      Z        X      Y      Z        X      Y      Z
   1   6    -0.08  -0.37   0.00    -0.05  -0.33   0.04     0.01  -0.00  -0.01
   2   6     0.39  -0.09  -0.09     0.28  -0.04   0.21    -0.05   0.02   0.17
   3   6    -0.22   0.07  -0.40    -0.07   0.08   0.37    -0.03   0.02  -0.38
   4   8     0.07   0.13   0.26     0.09   0.14  -0.49    -0.04   0.07   0.09
   5   8    -0.11   0.28   0.20    -0.16   0.18  -0.11     0.11  -0.04   0.30
   6   1    -0.13  -0.22   0.10     0.05  -0.18  -0.02     0.07  -0.02  -0.06
   7   1    -0.13  -0.04  -0.15    -0.12   0.01   0.05    -0.00   0.01   0.05
   8   1     0.06  -0.12   0.08    -0.09  -0.18  -0.02    -0.09  -0.02  -0.08
   9   1     0.12  -0.02  -0.08     0.02  -0.02   0.24     0.06  -0.05  -0.18
  10   1    -0.02   0.10   0.15    -0.13   0.05  -0.23    -0.14  -0.18  -0.74
  11   1    -0.08   0.01  -0.23    -0.01   0.04   0.22     0.04   0.03   0.21
                      7                      8                      9
                        a                      a                      a 
 Frequencies --   623.4848               649.4055               768.8544
 Red. masses --     8.4854                 6.1252                 2.5314
 Frc consts  --     0.0000                 0.0000                 0.0000
 IR Inten    --    25.0631                22.5668                86.9658
 Raman Activ --     0.0000                 0.0000                 0.0000
 Depolar     --     0.0000                 0.0000                 0.0000
 Atom AN      X      Y      Z        X      Y      Z        X      Y      Z
   1   6    -0.06   0.22  -0.07    -0.02   0.09   0.03     0.01   0.04   0.04
   2   6     0.07   0.11  -0.18    -0.09   0.05   0.30     0.04   0.03   0.02
   3   6    -0.20  -0.39  -0.05    -0.15  -0.28   0.10    -0.08  -0.06  -0.34
   4   8     0.39  -0.25   0.10     0.31  -0.12  -0.17     0.01  -0.04  -0.01
   5   8    -0.11   0.18   0.08    -0.09   0.18   0.00    -0.04   0.02  -0.04
   6   1    -0.04   0.16  -0.01     0.07  -0.05  -0.04     0.03  -0.04  -0.01
   7   1     0.00   0.06   0.04     0.04  -0.03  -0.05    -0.02   0.02  -0.01
   8   1     0.04   0.03   0.05    -0.09   0.15  -0.12    -0.04   0.02  -0.03
   9   1    -0.13   0.18   0.43     0.21   0.01  -0.66     0.01   0.02   0.02
  10   1    -0.26   0.17  -0.19    -0.13   0.17   0.11     0.08   0.07   0.37
  11   1    -0.08  -0.09   0.01    -0.08  -0.06  -0.06     0.17  -0.00   0.82
                     10                     11                     12
                        a                      a                      a 
 Frequencies --   917.4450               923.8167              1060.2121
 Red. masses --     7.7737                 3.8840                 9.4994
 Frc consts  --     0.0000                 0.0000                 0.0000
 IR Inten    --     5.6953                37.5173               360.2393
 Raman Activ --     0.0000                 0.0000                 0.0000
 Depolar     --     0.0000                 0.0000                 0.0000
 Atom AN      X      Y      Z        X      Y      Z        X      Y      Z
   1   6     0.10   0.38  -0.04     0.11  -0.06  -0.39    -0.11   0.12  -0.07
   2   6     0.32   0.19   0.08    -0.12   0.02   0.27     0.15  -0.00   0.08
   3   6     0.00  -0.22   0.05    -0.03  -0.03  -0.01     0.11   0.23  -0.01
   4   8    -0.39  -0.16  -0.02     0.03   0.05  -0.02     0.11  -0.47  -0.03
   5   8     0.10  -0.07  -0.01     0.02  -0.01  -0.01    -0.41   0.26   0.06
   6   1    -0.04  -0.27   0.08    -0.26   0.37   0.06    -0.01   0.10  -0.03
   7   1    -0.34   0.37  -0.17    -0.10   0.14   0.22     0.00   0.02   0.01
   8   1    -0.09  -0.17  -0.01     0.27  -0.51   0.32     0.03   0.02   0.03
   9   1     0.10  -0.11  -0.01     0.03   0.02  -0.14     0.05  -0.06  -0.02
  10   1    -0.03   0.03  -0.01    -0.01   0.03   0.06     0.40  -0.41  -0.07
  11   1     0.08  -0.15  -0.08    -0.00   0.00   0.04     0.19  -0.09  -0.04
                     13                     14                     15
                        a                      a                      a 
 Frequencies --  1116.8416              1170.8158              1177.9329
 Red. masses --     7.9101                 7.3049                 7.7399
 Frc consts  --     0.0000                 0.0000                 0.0000
 IR Inten    --    34.8048                14.1067                20.7281
 Raman Activ --     0.0000                 0.0000                 0.0000
 Depolar     --     0.0000                 0.0000                 0.0000
 Atom AN      X      Y      Z        X      Y      Z        X      Y      Z
   1   6     0.38   0.05   0.10     0.07  -0.07   0.04    -0.27   0.33  -0.10
   2   6    -0.49  -0.10  -0.12    -0.14   0.08  -0.07     0.07  -0.51   0.07
   3   6     0.05   0.14  -0.03    -0.34  -0.39   0.09    -0.10  -0.06   0.02
   4   8     0.33  -0.07   0.03     0.05   0.38   0.00     0.17   0.22   0.03
   5   8    -0.13   0.08   0.02     0.14   0.14  -0.05     0.13   0.05  -0.04
   6   1     0.01  -0.37   0.14     0.02  -0.08   0.02     0.03   0.07  -0.09
   7   1    -0.22   0.23  -0.15     0.03  -0.04  -0.00    -0.07   0.08  -0.06
   8   1    -0.09  -0.26  -0.03     0.00  -0.06   0.01     0.01   0.06   0.04
   9   1    -0.15  -0.06   0.03    -0.05   0.09   0.03     0.01  -0.55   0.09
  10   1     0.04  -0.05  -0.00     0.44  -0.35  -0.05     0.12  -0.06   0.02
  11   1    -0.11   0.15   0.00     0.18  -0.35  -0.03    -0.20   0.15   0.05
                     16                     17                     18
                        a                      a                      a 
 Frequencies --  1232.2645              1299.7803              1323.4692
 Red. masses --     3.4638                 5.3355                 2.0978
 Frc consts  --     0.0000                 0.0000                 0.0000
 IR Inten    --     8.8499                 0.8794               185.3996
 Raman Activ --     0.0000                 0.0000                 0.0000
 Depolar     --     0.0000                 0.0000                 0.0000
 Atom AN      X      Y      Z        X      Y      Z        X      Y      Z
   1   6    -0.04   0.07  -0.01    -0.06  -0.12  -0.02     0.19  -0.21  -0.08
   2   6    -0.09  -0.13  -0.01    -0.07   0.58  -0.08     0.02   0.06  -0.02
   3   6     0.06   0.18  -0.03     0.03  -0.09  -0.00    -0.06   0.01   0.01
   4   8     0.16   0.18   0.01     0.03  -0.09   0.02     0.05  -0.00   0.01
   5   8    -0.18  -0.14   0.06    -0.01   0.03   0.00     0.03  -0.00  -0.01
   6   1     0.02  -0.03  -0.02     0.08  -0.19  -0.04    -0.45   0.17   0.28
   7   1     0.01  -0.01  -0.02     0.19  -0.18   0.13    -0.18   0.21   0.34
   8   1     0.01  -0.02   0.02     0.12  -0.09   0.14    -0.21   0.40  -0.35
   9   1    -0.03  -0.24   0.03    -0.04  -0.65   0.03    -0.01  -0.26   0.03
  10   1    -0.29   0.20   0.03    -0.01   0.01   0.02     0.03  -0.02   0.01
  11   1     0.62  -0.49  -0.11    -0.08   0.05   0.01     0.02  -0.03  -0.00
                     19                     20                     21
                        a                      a                      a 
 Frequencies --  1349.7178              1400.3675              1487.0459
 Red. masses --     1.4798                 2.8190                13.1108
 Frc consts  --     0.0000                 0.0000                 0.0000
 IR Inten    --    40.9388                22.8679               502.0633
 Raman Activ --     0.0000                 0.0000                 0.0000
 Depolar     --     0.0000                 0.0000                 0.0000
 Atom AN      X      Y      Z        X      Y      Z        X      Y      Z
   1   6     0.08   0.01   0.15    -0.05   0.33  -0.16    -0.01   0.03   0.00
   2   6     0.04   0.10   0.03     0.08  -0.14   0.02     0.01   0.05  -0.00
   3   6    -0.02  -0.00   0.00     0.01   0.02  -0.00    -0.65   0.48   0.09
   4   8     0.01  -0.01  -0.01    -0.02   0.01  -0.01     0.11  -0.33  -0.01
   5   8     0.02   0.00  -0.00    -0.00   0.00  -0.00     0.42  -0.13  -0.07
   6   1    -0.21   0.43   0.09    -0.32  -0.41   0.27     0.04  -0.04  -0.02
   7   1     0.16  -0.24  -0.53     0.45  -0.27   0.32     0.02  -0.01  -0.01
   8   1    -0.41  -0.35  -0.21    -0.20  -0.21  -0.08     0.02  -0.03   0.04
   9   1    -0.01  -0.15   0.05     0.02   0.12   0.01     0.00   0.00  -0.01
  10   1     0.00   0.00   0.00    -0.00   0.00  -0.00     0.01   0.04  -0.01
  11   1    -0.01   0.00   0.01    -0.01   0.02   0.00     0.04  -0.07   0.00
                     22                     23                     24
                        a                      a                      a 
 Frequencies --  2897.4828              2971.6175              3022.4288
 Red. masses --     1.7942                 1.5726                 1.7746
 Frc consts  --     0.0000                 0.0000                 0.0000
 IR Inten    --    29.1617                25.7490                49.1921
 Raman Activ --     0.0000                 0.0000                 0.0000
 Depolar     --     0.0000                 0.0000                 0.0000
 Atom AN      X      Y      Z        X      Y      Z        X      Y      Z
   1   6     0.12  -0.06  -0.23    -0.17  -0.01  -0.15    -0.01  -0.00  -0.01
   2   6     0.00  -0.01  -0.00     0.01   0.01  -0.00    -0.22   0.01  -0.07
   3   6     0.00  -0.00   0.00     0.00   0.00  -0.00    -0.08  -0.08   0.02
   4   8     0.00   0.00  -0.00    -0.00  -0.00   0.00    -0.01  -0.01  -0.00
   5   8    -0.00   0.00   0.00     0.00  -0.00   0.00    -0.00   0.00  -0.00
   6   1     0.17   0.03   0.18     0.53   0.13   0.76     0.03   0.01   0.05
   7   1    -0.01  -0.04  -0.03    -0.05  -0.04  -0.01    -0.01  -0.01   0.00
   8   1    -0.59   0.25   0.67     0.14  -0.07  -0.22     0.01  -0.01  -0.02
   9   1     0.01  -0.00  -0.00    -0.06  -0.00  -0.02     0.82   0.00   0.25
  10   1     0.00  -0.00  -0.00    -0.00   0.00  -0.00    -0.00  -0.01   0.00
  11   1     0.00   0.00  -0.00    -0.01  -0.01   0.00     0.27   0.32  -0.07
                     25                     26                     27
                        a                      a                      a 
 Frequencies --  3029.7244              3060.6204              3316.7578
 Red. masses --     1.8116                 1.7505                 1.8264
 Frc consts  --     0.0000                 0.0000                 0.0000
 IR Inten    --    93.7909                 7.5071                66.5196
 Raman Activ --     0.0000                 0.0000                 0.0000
 Depolar     --     0.0000                 0.0000                 0.0000
 Atom AN      X      Y      Z        X      Y      Z        X      Y      Z
   1   6     0.01   0.01  -0.00    -0.17  -0.20   0.02    -0.00   0.00  -0.00
   2   6    -0.11  -0.00  -0.04    -0.02  -0.01  -0.00     0.00  -0.00  -0.00
   3   6     0.16   0.18  -0.04     0.01   0.01  -0.00     0.02   0.01  -0.00
   4   8     0.00   0.01  -0.00     0.00   0.00   0.00    -0.00  -0.00   0.00
   5   8    -0.00  -0.00   0.00    -0.00   0.00   0.00     0.14   0.17  -0.06
   6   1     0.00   0.00   0.01     0.01  -0.01   0.05     0.00   0.00   0.00
   7   1    -0.06  -0.06   0.01     0.62   0.72  -0.14    -0.00  -0.00   0.00
   8   1     0.00   0.00  -0.01    -0.04  -0.02   0.02     0.00   0.00  -0.00
   9   1     0.40   0.00   0.12     0.05   0.00   0.01    -0.00   0.00   0.00
  10   1     0.01   0.02  -0.00     0.00  -0.00   0.00    -0.62  -0.70   0.27
  11   1    -0.56  -0.64   0.13    -0.04  -0.05   0.01    -0.01  -0.02   0.00
