
                                 *****************
                                 * O   R   C   A *
                                 *****************

                                            #,                                       
                                            ###                                      
                                            ####                                     
                                            #####                                    
                                            ######                                   
                                           ########,                                 
                                     ,,################,,,,,                         
                               ,,#################################,,                 
                          ,,##########################################,,             
                       ,#########################################, ''#####,          
                    ,#############################################,,   '####,        
                  ,##################################################,,,,####,       
                ,###########''''           ''''###############################       
              ,#####''   ,,,,##########,,,,          '''####'''          '####       
            ,##' ,,,,###########################,,,                        '##       
           ' ,,###''''                  '''############,,,                           
         ,,##''                                '''############,,,,        ,,,,,,###''
      ,#''                                            '''#######################'''  
     '                                                          ''''####''''         
             ,#######,   #######,   ,#######,      ##                                
            ,#'     '#,  ##    ##  ,#'     '#,    #''#        ,####,   ,####,        
            ##       ##  ##   ,#'  ##            #'  '#       #'       #'  '#        
            ##       ##  #######   ##           ,######,      #####,   #    #        
            '#,     ,#'  ##    ##  '#,     ,#' ,#      #,     #,   #   #,  ,#        
             '#######'   ##     ##  '#######'  #'      '#     '####' # '####'        



                #########################################################
                #                        -***-                          #
                #          Department of theory and spectroscopy        #
                #                                                       #
                #                      Frank Neese                      #
                #                                                       #
                #     Directorship, Architecture, Infrastructure        #
                #                    SHARK, DRIVERS                     #
                #        Core code/Algorithms in most modules           #
                #                                                       #
                #        Max Planck Institute fuer Kohlenforschung      #
                #                Kaiser Wilhelm Platz 1                 #
                #                 D-45470 Muelheim/Ruhr                 #
                #                      Germany                          #
                #                                                       #
                #                  All rights reserved                  #
                #                        -***-                          #
                #########################################################


                         Program Version 6.0.1  -  RELEASE   -


 With contributions from (in alphabetic order):
[Max-Planck-Institut fuer Kohlenforschung]                               
  Daniel Aravena         : Magnetic Suceptibility                        
  Michael Atanasov       : Ab Initio Ligand Field Theory (pilot matlab implementation)
  Alexander A. Auer      : GIAO ZORA, VPT2 properties, NMR spectrum      
  Ute Becker             : All parallelization in ORCA, NUMFREQ, NUMCALC 
  Giovanni Bistoni       : ED, misc. LED, open-shell LED, HFLD           
  Martin Brehm           : Molecular dynamics                            
  Dmytro Bykov           : pre 5.0 version of the SCF Hessian            
  Marcos Casanova-Páez   : Triplet and SCS-CIS(D). UHF-(DLPNO)-IP/EA/STEOM-CCSD. UHF-CVS-IP/STEOM-CCSD   
  Vijay G. Chilkuri      : MRCI spin determinant printing, contributions to CSF-ICE 
  Pauline Colinet        : FMM embedding                                 
  Dipayan Datta          : RHF DLPNO-CCSD density                        
  Achintya Kumar Dutta   : EOM-CC, STEOM-CC                              
  Nicolas Foglia         : Exact transition moments, OPA infrastructure, MCD improvements    
  Dmitry Ganyushin       : Spin-Orbit,Spin-Spin,Magnetic field MRCI      
  Miquel Garcia-Rates    : C-PCM and meta-GGA Hessian, CCSD/C-PCM, Gaussian charge scheme 
  Tiago L. C. Gouveia    : GS-ROHF, GS-ROCIS                             
  Yang Guo               : DLPNO-NEVPT2, F12-NEVPT2, CIM, IAO-localization        
  Andreas Hansen         : Spin unrestricted coupled pair/coupled cluster methods 
  Ingolf Harden          : AUTO-CI MPn and infrastructure                
  Benjamin Helmich-Paris : MC-RPA, TRAH-(SCF,CASSCF), AVAS, COSX integrals, SCF dyn. polar. 
  Lee Huntington         : MR-EOM, pCC                                   
  Robert Izsak           : Overlap fitted RIJCOSX, COSX-SCS-MP3, EOM     
  Riya Kayal             : Wick's Theorem for AUTO-CI, AUTO-CI UHF-CCSDT 
  Emily Kempfer          : AUTO-CI, RHF CISDT and CCSDT                  
  Christian Kollmar      : KDIIS, OOCD, Brueckner-CCSD(T), CCSD density, CASPT2, CASPT2-K, improved NEVPT2 
  Axel Koslowski         : Symmetry handling                             
  Simone Kossmann        : meta-GGA functionals, TD-DFT gradient, OOMP2, (MP2 Hessian; deprecated post 5.0) 
  Lucas Lang             : DCDCAS                                        
  Marvin Lechner         : AUTO-CI (C++ implementation), FIC-MRCC        
  Spencer Leger          : CASSCF response                               
  Dagmar Lenk            : GEPOL surface, SMD, ORCA-2-JSON               
  Dimitrios Liakos       : Extrapolation schemes; Compound Job, initial MDCI parallelization 
  Dimitrios Manganas     : Further ROCIS development; embedding schemes. LFT, Crystal Embedding 
  Dimitrios Pantazis     : SARC Basis sets                               
  Anastasios Papadopoulos: AUTO-CI, single reference methods and gradients 
  Taras Petrenko         : pre 6.0 DFT Hessian and TD-DFT gradient, (ASA, deprecated), ECA, 1-Electron XAS/XES, NRVS 
  Peter Pinski           : DLPNO-MP2, DLPNO-MP2 Gradient                 
  Christoph Reimann      : Effective Core Potentials                     
  Marius Retegan         : Local ZFS, SOC                                
  Christoph Riplinger    : Optimizer, TS searches, QM/MM, DLPNO-CCSD(T), (RO)-DLPNO pert. Triples 
  Michael Roemelt        : Original ROCIS implementation                 
  Masaaki Saitow         : Open-shell DLPNO-CCSD energy and density      
  Barbara Sandhoefer     : DKH picture change effects                    
  Kantharuban Sivalingam : CASSCF convergence/infrastructure, NEVPT2 and variants, FIC-MRCI 
  Bernardo de Souza      : ESD, SOC TD-DFT                               
  Georgi L. Stoychev     : AutoAux, RI-MP2 NMR, DLPNO-MP2 response, X2C  
  Van Anh Tran           : RI-MP2 g-tensors                              
  Willem Van den Heuvel  : Paramagnetic NMR                              
  Zikuan Wang            : NOTCH, Electric field optimization            
  Frank Wennmohs         : Technical directorship and infrastructure     
  Hang Xu                : AUTO-CI-Response properties                   
                                                                         
[FACCTs GmbH]                                                            
  Markus Bursch, Miquel Garcia-Rates, Christoph Riplinger, Bernardo de Souza, Georgi L. Stoychev 
                                                                 
  APM, Basis sets (HGBS, AHGBS, def-TZVP (Ac-Lr), def2-XVPD (La-Lu)), CI-OPT, improved COSX, DLPNO-Multilevel,           
  DOCKER, DRACO, updates on ESD, GOAT, IRC, LR-CPCM, MBIS, meta-GGA TD-DFT gradient, ML-optimized integration grids, 
  MM, NACMEs, nearIR, NEB, NEB-TS, NL-DFT gradient (VV10), 2- and 3-layer-ONIOM, interface openCOSMO-RS, QMMM,   
  Crystal-QMMM, SF, symmetry and pop. for TD-DFT, r2SCAN hybrids, SOLVATOR                                   
                                                                         
[Other institutions]                                                     
  V. Asgeirsson          : NEB                                           
  Christoph Bannwarth    : sTDA-DFT, sTD-DFT, PBEh-3c, B97-3c, D3        
  Sebastian Ehlert       : rSCAN, r2SCAN, r2SCAN-3c, D4, dhf basis sets  
  Marvin Friede          : D4 for Fr, Ra, Ac-Lr                          
  Lars Goerigk           : TD-DFT with DH, B97 family of functionals     
  Stefan Grimme          : VdW corrections, initial TS optimization, DFT functionals, gCP, sTDA/sTD-DF 
  Waldemar Hujo          : DFT-NL                                        
  H. Jonsson             : NEB                                           
  Holger Kruse           : gCP                                           
  Marcel Mueller         : wB97X-3c, vDZP basis set                      
  Hagen Neugebauer       : wr2SCAN                                       
  Tobias Risthaus        : range-separated hybrid DFT                    
  Lukas Wittmann         : regularized MP2, r2SCAN double-hybrids, wr2SCAN        
                                                                         
We gratefully acknowledge several colleagues who have allowed us to      
interface, adapt or use parts of their codes:                            
  Ed Valeev, F. Pavosevic, A. Kumar             : LibInt (2-el integral package), F12 methods 
  Garnet Chan, S. Sharma, J. Yang, R. Olivares  : DMRG                   
  Ulf Ekstrom                                   : XCFun DFT Library      
  Mihaly Kallay                                 : mrcc  (arbitrary order and MRCC methods)
  Frank Weinhold                                : gennbo (NPA and NBO analysis)           
  Simon Mueller                                 : openCOSMO-RS                            
  Christopher J. Cramer and Donald G. Truhlar   : smd solvation model                     
  S Lehtola, MJT Oliveira, MAL Marques          : LibXC Library                           
  Liviu Ungur et al                             : ANISO software                          


 Your calculation uses the libint2 library for the computation of 2-el integrals
 For citations please refer to: http://libint.valeyev.net

 Your ORCA version has been built with support for libXC version: 6.2.2
 For citations please refer to: https://libxc.gitlab.io

 This ORCA versions uses:
   CBLAS   interface :  Fast vector & matrix operations
   LAPACKE interface :  Fast linear algebra routines
   SCALAPACK package :  Parallel linear algebra routines
   Shared memory     :  Shared parallel matrices
   BLAS/LAPACK       :  OpenBLAS 0.3.27  USE64BITINT DYNAMIC_ARCH NO_AFFINITY Haswell SINGLE_THREADED
        Core in use  :  Haswell
   Copyright (c) 2011-2014, The OpenBLAS Project


NOTE: MaxCore=8000 MB was set to SCF,MP2,MDCI,CIPSI,MRCI and CIS
      => If you want to overwrite this, your respective input block should be placed after the MaxCore statement


***************************************
The coordinates will be read from file: isomer.xyz
***************************************


Your calculation utilizes the atom-pairwise dispersion correction
based on EEQ partial charges (D4)


================================================================================

cite the ECPs for C  [vDZP-ECP], O  [vDZP-ECP] as follows:
   B-Ne (ecp-2-mwb), Al-Ar (ecp-10-mwb), Ga-Kr (ecp-28-mwb), Y-Cd (ecp-28-mwb), In-Xe (ecp-46-mwb):
     A. Bergner, M. Dolg, W. Küchle, H. Stoll, and H. Preuß, Mol. Phys. 80, 1431 (1993)., T. Leininger, A. Berning, A. Nicklass, H. Stoll, H.-J. Werner, and H.-J.Flad, Chem. Phys. 217, 19 (1997).
   Na-Mg, K-Ca, Rb-Sr, Cs-Ba (CRENBL):
     L. Fernandez Pacios and P. A. Christiansen, J. Chem. Phys. 82, 2664 (1985)., M. M. Hurley, L. F. Pacios, P. A. Christiansen, R. B. Ross, and W. C. Ermler, J. Chem. Phys. 84, 6840 (1986)., L. A. LaJohn, P. A. Christiansen, R. B. Ross, T. Atashroo, and W. C. Ermler, J. Chem. Phys. 87, 2812 (1987)., R. B. Ross, J. M. Powers, T. Atashroo, W. C. Ermler, L. A. LaJohn, and P. A. Christiansen, J. Chem. Phys. 93, 6654 (1990). 
   Sc-Zn (ecp-10-mdf):
     M. Dolg, U. Wedig, H. Stoll, and H. Preuss, J. Chem. Phys. 86, 866 (1986). 
   Y-Cd (ecp-28-mwb), Hf-Hg (ecp-60-mwb):
     D. Andrae, U. Häußermann, M. Dolg, H. Stoll, and H. Preuß, Theor. Chim. Acta 77, 123 (1990). 
   La (ecp-46-mwb):
     M. Dolg, H. Stoll, and H. Preuss, J. Chem. Phys. 90, 1730 (1989)., M. Dolg, H. Stoll, and H. Preuss, Theor. Chim. Acta 85, 441 (1993).
   Ce-Lu (SBKJC-ecp):
     T. R. Cundari and W. J. Stevens, J. Chem. Phys. 98, 5555 (1993).
   Tl-Rn (ecp-78-mwb):
     W. Küchle, M. Dolg, H. Stoll, and H. Preuss, Mol. Phys. 74, 1245 (1991).

ECP parameters for C  [vDZP-ECP], O  [vDZP-ECP] have been obtained from:
MM, AH, SG, J. Chem. Phys. 158, 014103 (2023), 10.1063/5.0133026

----- Orbital basis set information -----
Your calculation utilizes the basis: vDZP
   Marcel Mueller, Andreas Hansen, Stefan Grimme 
   J. Chem. Phys. 158, 014103 (2023). DOI: 10.1063/5.0133026

----- AuxJ basis set information -----
Your calculation utilizes the auxiliary basis: def2/J
   F. Weigend, Phys. Chem. Chem. Phys. 8, 1057 (2006).

================================================================================
                                        WARNINGS
                       Please study these warnings very carefully!
================================================================================

WARNING: Frozen-Core approximation turned on, but there are no core electrons.
  ===> : Turning off frozen-core approximation

WARNING: Old DensityContainer found on disk!
         Will remove this file - 
         If you want to keep old densities, please start your calculation with a different basename. 


WARNING: your system is open-shell and RHF/RKS was chosen
  ===> : WILL SWITCH to UHF/UKS


================================================================================
                                       INPUT FILE
================================================================================
NAME = orca.inp
|  1>  ! DEFGRID2 
|  2>  ! wB97X-3c
|  3>  ! SP
|  4>  %pal
|  5> nprocs 4
|  6>  end
|  7>  %maxcore 8000
|  8>  *xyzfile            1             2  isomer.xyz
|  9> 
| 10>                          ****END OF INPUT****
================================================================================

                       ****************************
                       * Single Point Calculation *
                       ****************************

---------------------------------
CARTESIAN COORDINATES (ANGSTROEM)
---------------------------------
  C      0.593712   -2.220488    0.231388
  C     -0.172909   -1.025156   -0.108112
  C      0.121905    1.306716   -0.142788
  O      0.595312    0.144906   -0.247308
  O     -1.070268    1.594608    0.169971
  H      1.187371   -2.075718    1.132954
  H     -0.090148   -3.050980    0.382317
  H      1.276486   -2.481856   -0.582987
  H     -1.085519   -1.010038   -0.692009
  H     -1.639819    0.844883    0.412975
  H      0.797881    2.134544   -0.334079

----------------------------
CARTESIAN COORDINATES (A.U.)
----------------------------
  NO LB      ZA    FRAG     MASS         X           Y           Z
   0 C     4.0000*   0    12.011    1.121954   -4.196113    0.437260
   1 C     4.0000*   0    12.011   -0.326750   -1.937265   -0.204303
   2 C     4.0000*   0    12.011    0.230367    2.469336   -0.269829
   3 O     6.0000*   0    15.999    1.124976    0.273833   -0.467345
   4 O     6.0000*   0    15.999   -2.022513    3.013372    0.321198
   5 H     1.0000    0     1.008    2.243807   -3.922539    2.140972
   6 H     1.0000    0     1.008   -0.170355   -5.765516    0.722474
   7 H     1.0000    0     1.008    2.412210   -4.690028   -1.101686
   8 H     1.0000    0     1.008   -2.051334   -1.908696   -1.307708
   9 H     1.0000    0     1.008   -3.098809    1.596597    0.780409
  10 H     1.0000    0     1.008    1.507777    4.033703   -0.631318
* core charge reduced due to ECP

--------------------------------
INTERNAL COORDINATES (ANGSTROEM)
--------------------------------
 C      0   0   0     0.000000000000     0.00000000     0.00000000
 C      1   0   0     1.460063360902     0.00000000     0.00000000
 C      2   1   0     2.350691038110   138.56523124     0.00000000
 O      3   2   1     1.258904634405    29.87676281    30.64504571
 O      3   2   1     1.265691718602    95.96154164   214.03238888
 H      1   2   3     1.089132705972   111.70674131    40.81974224
 H      1   2   3     1.086352561898   109.12588467   161.72952284
 H      1   2   3     1.094394808020   110.49152649   280.66853696
 H      2   1   3     1.083522742487   125.37783836   163.70534943
 H      5   3   2     0.972382222232   115.98170704     6.95568529
 H      3   2   1     1.085741309461   146.82801275    36.97967796

---------------------------
INTERNAL COORDINATES (A.U.)
---------------------------
 C      0   0   0     0.000000000000     0.00000000     0.00000000
 C      1   0   0     2.759119890278     0.00000000     0.00000000
 C      2   1   0     4.442162287491   138.56523124     0.00000000
 O      3   2   1     2.378984987749    29.87676281    30.64504571
 O      3   2   1     2.391810718130    95.96154164   214.03238888
 H      1   2   3     2.058162537783   111.70674131    40.81974224
 H      1   2   3     2.052908826871   109.12588467   161.72952284
 H      1   2   3     2.068106469543   110.49152649   280.66853696
 H      2   1   3     2.047561243176   125.37783836   163.70534943
 H      5   3   2     1.837536097512   115.98170704     6.95568529
 H      3   2   1     2.051753727166   146.82801275    36.97967796

---------------------
BASIS SET INFORMATION
---------------------
There are 3 groups of distinct atoms

 Group   1 Type C   : 6s6p2d contracted to 2s2p1d pattern {42/42/2}
 Group   2 Type O   : 6s6p2d contracted to 2s2p1d pattern {42/42/2}
 Group   3 Type H   : 8s2p contracted to 2s1p pattern {53/2}

Atom   0C    basis set group =>   1
Atom   1C    basis set group =>   1
Atom   2C    basis set group =>   1
Atom   3O    basis set group =>   2
Atom   4O    basis set group =>   2
Atom   5H    basis set group =>   3
Atom   6H    basis set group =>   3
Atom   7H    basis set group =>   3
Atom   8H    basis set group =>   3
Atom   9H    basis set group =>   3
Atom  10H    basis set group =>   3
---------------------------------
AUXILIARY/J BASIS SET INFORMATION
---------------------------------
There are 3 groups of distinct atoms

 Group   1 Type C   : 12s5p4d2f1g contracted to 6s4p3d1f1g pattern {711111/2111/211/2/1}
 Group   2 Type O   : 12s5p4d2f1g contracted to 6s4p3d1f1g pattern {711111/2111/211/2/1}
 Group   3 Type H   : 5s2p1d contracted to 3s1p1d pattern {311/2/1}

Atom   0C    basis set group =>   1
Atom   1C    basis set group =>   1
Atom   2C    basis set group =>   1
Atom   3O    basis set group =>   2
Atom   4O    basis set group =>   2
Atom   5H    basis set group =>   3
Atom   6H    basis set group =>   3
Atom   7H    basis set group =>   3
Atom   8H    basis set group =>   3
Atom   9H    basis set group =>   3
Atom  10H    basis set group =>   3
-------------------------
ECP PARAMETER INFORMATION
-------------------------

 Group 1, Type C  ECP vDZP-ECP (replacing 2 core electrons, lmax=3)
 Group 2, Type O  ECP vDZP-ECP (replacing 2 core electrons, lmax=3)

Atom   0C    ECP group =>   1
Atom   1C    ECP group =>   1
Atom   2C    ECP group =>   1
Atom   3O    ECP group =>   2
Atom   4O    ECP group =>   2



           ************************************************************
           *        Program running with 4 parallel MPI-processes     *
           *              working on a common directory               *
           ************************************************************
------------------------------------------------------------------------------
                             ORCA STARTUP CALCULATIONS
                           -- RI-GTO INTEGRALS CHOSEN --
------------------------------------------------------------------------------
------------------------------------------------------------------------------
                   ___                                                        
                  /   \      - P O W E R E D   B Y -                         
                 /     \                                                     
                 |  |  |   _    _      __       _____    __    __             
                 |  |  |  | |  | |    /  \     |  _  \  |  |  /  |          
                  \  \/   | |  | |   /    \    | | | |  |  | /  /          
                 / \  \   | |__| |  /  /\  \   | |_| |  |  |/  /          
                |  |  |   |  __  | /  /__\  \  |    /   |      \           
                |  |  |   | |  | | |   __   |  |    \   |  |\   \          
                \     /   | |  | | |  |  |  |  | |\  \  |  | \   \       
                 \___/    |_|  |_| |__|  |__|  |_| \__\ |__|  \__/        
                                                                              
                      - O R C A' S   B I G   F R I E N D -                    
                                      &                                       
                       - I N T E G R A L  F E E D E R -                       
                                                                              
 v1 FN, 2020, v2 2021, v3 2022-2024                                           
------------------------------------------------------------------------------


----------------------
SHARK INTEGRAL PACKAGE
----------------------

Number of atoms                             ...     11
Number of basis functions                   ...     95
Number of shells                            ...     43
Maximum angular momentum                    ...      2
Integral batch strategy                     ... SHARK/LIBINT Hybrid
RI-J (if used) integral strategy            ... SPLIT-RIJ (Revised 2003 algorithm where possible)
Printlevel                                  ...      1
Contraction scheme used                     ... SEGMENTED contraction
Prescreening option                         ... SCHWARTZ
   Thresh                                   ... 1.000e-10
   Tcut                                     ... 1.000e-11
   Tpresel                                  ... 1.000e-11 
Coulomb Range Separation                    ... NOT USED
Exchange Range Separation                   ... Long Range
   Mu parameter                             ... 3.000e-01
   Scaling (regular/separated)              ... 1.670e-01 8.330e-01
Multipole approximations                    ... NOT USED
Finite Nucleus Model                        ... NOT USED
CABS basis                                  ... NOT available
Auxiliary Coulomb fitting basis             ... AVAILABLE
   # of basis functions in Aux-J            ...    311
   # of shells in Aux-J                     ...    105
   Maximum angular momentum in Aux-J        ...      4
Auxiliary J/K fitting basis                 ... NOT available
Auxiliary Correlation fitting basis         ... NOT available
Auxiliary 'external' fitting basis          ... NOT available

Checking pre-screening integrals            ... done (  0.0 sec) Dimension = 43
Check shell pair data                       ... done (  0.0 sec)
Shell pair information
Shell pair cut-off parameter TPreSel        ...   1.0e-11
Total number of shell pairs                 ...       946
Shell pairs after pre-screening             ...       946
Total number of primitive shell pairs       ...      8674
Primitive shell pairs kept                  ...      7723
          la=0 lb=0:    253 shell pairs
          la=1 lb=0:    352 shell pairs
          la=1 lb=1:    136 shell pairs
          la=2 lb=0:    110 shell pairs
          la=2 lb=1:     80 shell pairs
          la=2 lb=2:     15 shell pairs

Calculating one electron integrals          ... done (  0.0 sec)
Calculating ECP integrals                   ... done (  0.0 sec)
Calculating RI/J V-Matrix + Cholesky decomp.... done (  0.0 sec)
Calculating Nuclear repulsion               ... done (  0.0 sec) ENN=    100.485104700272 Eh

Diagonalization of the overlap matrix:
Smallest eigenvalue                        ... 2.332e-03
Time for diagonalization                   ...    0.002 sec
Threshold for overlap eigenvalues          ... 1.000e-07
Number of eigenvalues below threshold      ... 0
Time for construction of square roots      ...    0.000 sec
Total time needed                          ...    0.003 sec

-------------------
DFT GRID GENERATION
-------------------

General Integration Accuracy     IntAcc      ... 4.388
Radial Grid Type                 RadialGrid  ... OptM3 with GC (2021)
Angular Grid (max. ang.)         AngularGrid ... 4 (Lebedev-302)
Angular grid pruning method      GridPruning ... 4 (adaptive)
Weight generation scheme         WeightScheme... mBecke (2022)
Basis function cutoff            BFCut       ... 1.0000e-10
Integration weight cutoff        WCut        ... 1.0000e-14
Partially contracted basis set               ... off
Rotationally invariant grid construction     ... off
Angular grids for H and He will be reduced by one unit

Total number of grid points                  ...    49863
Total number of batches                      ...      786
Average number of points per batch           ...       63
Average number of grid points per atom       ...     4533

--------------------
COSX GRID GENERATION
--------------------

GRIDX 1
-------
General Integration Accuracy     IntAcc      ... 3.816
Radial Grid Type                 RadialGrid  ... OptM3 with GC (2021)
Angular Grid (max. ang.)         AngularGrid ... 1 (Lebedev-50)
Angular grid pruning method      GridPruning ... 4 (adaptive)
Weight generation scheme         WeightScheme... mBecke (2022)
Basis function cutoff            BFCut       ... 1.0000e-10
Integration weight cutoff        WCut        ... 1.0000e-14
Partially contracted basis set               ... on
Rotationally invariant grid construction     ... off
Angular grids for H and He will be reduced by one unit

Total number of grid points                  ...     6409
Total number of batches                      ...       57
Average number of points per batch           ...      112
Average number of grid points per atom       ...      583
UseSFitting                                  ... on

GRIDX 2
-------
General Integration Accuracy     IntAcc      ... 4.020
Radial Grid Type                 RadialGrid  ... OptM3 with GC (2021)
Angular Grid (max. ang.)         AngularGrid ... 2 (Lebedev-110)
Angular grid pruning method      GridPruning ... 4 (adaptive)
Weight generation scheme         WeightScheme... mBecke (2022)
Basis function cutoff            BFCut       ... 1.0000e-10
Integration weight cutoff        WCut        ... 1.0000e-14
Partially contracted basis set               ... on
Rotationally invariant grid construction     ... off
Angular grids for H and He will be reduced by one unit

Total number of grid points                  ...    13863
Total number of batches                      ...      114
Average number of points per batch           ...      121
Average number of grid points per atom       ...     1260
UseSFitting                                  ... on

GRIDX 3
-------
General Integration Accuracy     IntAcc      ... 4.338
Radial Grid Type                 RadialGrid  ... OptM3 with GC (2021)
Angular Grid (max. ang.)         AngularGrid ... 3 (Lebedev-194)
Angular grid pruning method      GridPruning ... 4 (adaptive)
Weight generation scheme         WeightScheme... mBecke (2022)
Basis function cutoff            BFCut       ... 1.0000e-10
Integration weight cutoff        WCut        ... 1.0000e-14
Partially contracted basis set               ... on
Rotationally invariant grid construction     ... off
Angular grids for H and He will be reduced by one unit

Total number of grid points                  ...    30479
Total number of batches                      ...      243
Average number of points per batch           ...      125
Average number of grid points per atom       ...     2771
UseSFitting                                  ... on
Initializing property integral containers    ... done (  0.0 sec)

SHARK setup successfully completed in   0.8 seconds

Maximum memory used throughout the entire STARTUP-calculation: 16.1 MB


           ************************************************************
           *        Program running with 4 parallel MPI-processes     *
           *              working on a common directory               *
           ************************************************************
-------------------------------------------------------------------------------
                                 ORCA GUESS
                   Start orbitals & Density for SCF / CASSCF
-------------------------------------------------------------------------------

------------
SCF SETTINGS
------------
Hamiltonian:
 Density Functional     Method          .... DFT(GTOs)
 Exchange Functional    Exchange        .... WB97X-V
 Correlation Functional Correlation     .... WB97X-V
 Gradients option       PostSCFGGA      .... off
 Hybrid DFT is turned on
   Fraction HF Exchange ScalHFX         ....  0.167000
   Scaling of DF-GGA-X  ScalDFX         ....  0.000000
   Scaling of DF-GGA-C  ScalDFC         ....  1.000000
   Scaling of DF-LDA-C  ScalLDAC        ....  1.000000
   Perturbative correction              ....  0.000000
 Long-range corrected/Screened/Range-Separated Hybrid DFT is turned on
   Amount of maximum screened exact exchange              ....  0.833000
   Range separation parameter mu (erf(mu*r12)/r12)        ....  0.300000
   NL short-range parameter             ....  6.000000
   NL long-range parameter              ....  0.010000
 RI-approximation to the Coulomb term is turned on
   Number of AuxJ basis functions       .... 311
   RIJ-COSX (HFX calculated with COS-X)).... on


General Settings:
 Integral files         IntName         .... orca
 Hartree-Fock type      HFTyp           .... UHF
 Total Charge           Charge          ....    1
 Multiplicity           Mult            ....    2
 Number of Electrons    NEL             ....   29
 Basis Dimension        Dim             ....   95
 Nuclear Repulsion      ENuc            ....    100.4851047003 Eh

Convergence Acceleration:
 AO-DIIS                CNVDIIS         .... on
   Start iteration      DIISMaxIt       ....    12
   Startup error        DIISStart       ....  0.200000
   # of expansion vecs  DIISMaxEq       ....     5
   Bias factor          DIISBfac        ....   1.050
   Max. coefficient     DIISMaxC        ....  10.000
 MO-DIIS                CNVKDIIS        .... off
 Trust-Rad. Augm. Hess. CNVTRAH         .... auto
   Auto Start mean grad. ratio tolernc. ....  1.125000
   Auto Start start iteration           ....    50
   Auto Start num. interpolation iter.  ....    10
   Max. Number of Micro iterations      ....    24
   Max. Number of Macro iterations      .... Maxiter - #DIIS iter
   Number of Davidson start vectors     ....     2
   Converg. threshold    (grad. norm)   ....   5.000e-05
   Grad. Scal. Fac. for Micro threshold ....   0.100
   Minimum threshold for Micro iter.    ....   1.000e-02
   NR start threshold (gradient norm)   ....   1.000e-04
   Initial trust radius                 ....   0.400
   Minimum AH scaling param. (alpha)    ....   1.000
   Maximum AH scaling param. (alpha)    .... 1000.000
   Quad. conv. algorithm                .... NR
   White noise on init. David. guess    .... on
   Maximum white noise                  ....   0.010
   Pseudo random numbers                .... off
   Inactive MOs                         .... canonical
   Orbital update algorithm             .... Taylor
   Preconditioner                       .... Diag
   Full preconditioner red. dimension   ....   250
 SOSCF                  CNVSOSCF        .... on
   Start iteration      SOSCFMaxIt      ....   150
   Startup grad/error   SOSCFStart      ....  0.003300
   Hessian update       SOSCFHessUp     .... L-BFGS
 Level Shifting         CNVShift        .... on
   Level shift para.    LevelShift      ....    0.2500
   Turn off err/grad.   ShiftErr        ....    0.0010
 Zerner damping         CNVZerner       .... off
 Static damping         CNVDamp         .... on
   Fraction old density DampFac         ....    0.7000
   Max. Damping (<1)    DampMax         ....    0.9800
   Min. Damping (>=0)   DampMin         ....    0.0000
   Turn off err/grad.   DampErr         ....    0.1000

SCF Procedure:
 Maximum # iterations   MaxIter         ....   125
 SCF integral mode      SCFMode         .... Direct
   Integral package                     .... SHARK and LIBINT hybrid scheme
 Reset frequency        DirectResetFreq ....    20
 Integral Threshold     Thresh          ....  1.000e-10 Eh
 Primitive CutOff       TCut            ....  1.000e-11 Eh

Convergence Tolerance:
 Convergence Check Mode ConvCheckMode   .... Total+1el-Energy
 Convergence forced     ConvForced      .... 0
 Energy Change          TolE            ....  1.000e-06 Eh
 1-El. energy change                    ....  1.000e-03 Eh
 Orbital Gradient       TolG            ....  5.000e-05
 Orbital Rotation angle TolX            ....  5.000e-05
 DIIS Error             TolErr          ....  1.000e-06

------------------------------
INITIAL GUESS: MODEL POTENTIAL
------------------------------
Loading Hartree-Fock densities                     ... done
Atomic calculation to generate a density for atom 0 (C  with ECP)
  Multiplicity assumed   :    1
  Atomic configuration   : 1s2 2s2 2p2 
  Number of open shells  : 1
  Command: /home/alejandro/orca_6_0_1/orca orca_atom6.inp "" > orca_atom6.out
Returned from the atomic calculation with res=0
Atomic calculation to generate a density for atom 3 (O  with ECP)
  Multiplicity assumed   :    3
  Atomic configuration   : 1s2 2s2 2p4 
  Number of open shells  : 1
  Command: /home/alejandro/orca_6_0_1/orca orca_atom8.inp "" > orca_atom8.out
Returned from the atomic calculation with res=0
Calculating cut-offs                               ... done
Initializing the effective Hamiltonian             ... done
Setting up the integral package (SHARK)            ... done
Starting the Coulomb interaction                   ... done (   0.0 sec)
Making the grid                                    ... done (   0.1 sec)
Mapping shells                                     ... done
Starting the XC term evaluation                    ... done (   0.0 sec)
  promolecular density results
     # of electrons  =     39.997162865
     EX              =    -22.698693994
     EC              =     -1.657975963
     EX+EC           =    -24.356669957
Transforming the Hamiltonian                       ... done (   0.0 sec)
Diagonalizing the Hamiltonian                      ... done (   0.0 sec)
Back transforming the eigenvectors                 ... done (   0.0 sec)
Now organizing SCF variables                       ... done
                      ------------------
                      INITIAL GUESS DONE (   1.0 sec)
                      ------------------
             **** ENERGY FILE WAS UPDATED (orca.en.tmp) ****
Finished Guess after   1.3 sec
Maximum memory used throughout the entire GUESS-calculation: 9.5 MB


           ************************************************************
           *        Program running with 4 parallel MPI-processes     *
           *              working on a common directory               *
           ************************************************************

-------------------------------------------------------------------------------------------
                                      ORCA LEAN-SCF
                              memory conserving SCF solver
-------------------------------------------------------------------------------------------

----------------------------------------D-I-I-S--------------------------------------------
Iteration    Energy (Eh)           Delta-E    RMSDP     MaxDP     DIISErr   Damp  Time(sec)
-------------------------------------------------------------------------------------------
               ***  Starting incremental Fock matrix formation  ***
    1    -52.3412055480391558     0.00e+00  1.93e-03  3.32e-02  8.08e-02  0.700   2.0
    2    -52.3869123456293693    -4.57e-02  1.42e-03  2.42e-02  4.84e-02  0.700   1.0
                               ***Turning on AO-DIIS***
    3    -52.4107282485988293    -2.38e-02  8.18e-04  1.10e-02  2.48e-02  0.700   1.0
    4    -52.4252829409557393    -1.46e-02  1.93e-03  2.07e-02  1.51e-02  0.000   1.0
    5    -52.4575550173511402    -3.23e-02  2.63e-04  6.22e-03  4.44e-03  0.000   1.0
                              *** Initializing SOSCF ***
---------------------------------------S-O-S-C-F--------------------------------------
Iteration    Energy (Eh)           Delta-E    RMSDP     MaxDP     MaxGrad    Time(sec)
--------------------------------------------------------------------------------------
    6    -52.4578826879124023    -3.28e-04  1.63e-04  3.82e-03  2.82e-03     1.0
               *** Restarting incremental Fock matrix formation ***
    7    -52.4580360788377646    -1.53e-04  1.32e-04  2.97e-03  2.40e-03     1.9
    8    -52.4581020208778028    -6.59e-05  1.84e-04  4.26e-03  1.33e-03     1.7
    9    -52.4581323233474421    -3.03e-05  4.21e-05  9.79e-04  5.89e-04     1.7
   10    -52.4581373386360923    -5.02e-06  1.86e-05  5.90e-04  2.41e-04     1.6
   11    -52.4581378626306645    -5.24e-07  9.76e-06  2.92e-04  2.00e-04     1.5
                 **** Energy Check signals convergence ****

               *****************************************************
               *                     SUCCESS                       *
               *           SCF CONVERGED AFTER  11 CYCLES          *
               *****************************************************

Recomputing exchange energy using gridx3       ... done (    3.460 sec)
Old exchange energy                            :     -5.898405921 Eh
New exchange energy                            :     -5.898396896 Eh
Exchange energy change after final integration :      0.000009025 Eh
Total energy after final integration           :    -52.458128837 Eh
             **** ENERGY FILE WAS UPDATED (orca.en.tmp) ****

----------------
TOTAL SCF ENERGY
----------------

Total Energy       :        -52.45812883736556 Eh           -1427.45826 eV

Components:
Nuclear Repulsion  :        100.48510470027226 Eh            2734.33871 eV
Electronic Energy  :       -152.94324256290292 Eh           -4161.79721 eV
One Electron Energy:       -273.78066627800979 Eh           -7449.95068 eV
Two Electron Energy:        120.83742371510687 Eh            3288.15347 eV

Virial components:
Potential Energy   :        -93.70746923445088 Eh           -2549.90987 eV
Kinetic Energy     :         41.24934039708532 Eh            1122.45162 eV
Virial Ratio       :          2.27173254971787

DFT components:
N(Alpha)           :       15.000021912269 electrons
N(Beta)            :       14.000024271087 electrons
N(Total)           :       29.000046183356 electrons
E(X)               :       -7.199306483745 Eh       
E(C)               :       -1.118843222577 Eh       
E(XC)              :       -8.318149706321 Eh       

---------------
SCF CONVERGENCE
---------------

  Last Energy change         ...    5.2399e-07  Tolerance :   1.0000e-06
  Last MAX-Density change    ...    2.9246e-04  Tolerance :   1.0000e-05
  Last RMS-Density change    ...    9.7598e-06  Tolerance :   1.0000e-06
  Last DIIS Error            ...    2.8228e-03  Tolerance :   1.0000e-06
  Last Orbital Gradient      ...    2.0045e-04  Tolerance :   5.0000e-05
  Last Orbital Rotation      ...    6.8863e-04  Tolerance :   5.0000e-05


----------------------
UHF SPIN CONTAMINATION
----------------------

Warning: in a DFT calculation there is little theoretical justification to 
         calculate <S**2> as in Hartree-Fock theory. We will do it anyways
         but you should keep in mind that the values have only limited relevance

Expectation value of <S**2>     :     0.755481
Ideal value S*(S+1) for S=0.5   :     0.750000
Deviation                       :     0.005481

----------------
ORBITAL ENERGIES
----------------
                 SPIN UP ORBITALS
  NO   OCC          E(Eh)            E(eV) 
   0   1.0000      -1.553540       -42.2740 
   1   1.0000      -1.467335       -39.9282 
   2   1.0000      -1.165366       -31.7112 
   3   1.0000      -1.065329       -28.9891 
   4   1.0000      -1.008787       -27.4505 
   5   1.0000      -0.930373       -25.3167 
   6   1.0000      -0.902629       -24.5618 
   7   1.0000      -0.868049       -23.6208 
   8   1.0000      -0.783532       -21.3210 
   9   1.0000      -0.769967       -20.9519 
  10   1.0000      -0.762783       -20.7564 
  11   1.0000      -0.709610       -19.3095 
  12   1.0000      -0.708326       -19.2745 
  13   1.0000      -0.684316       -18.6212 
  14   1.0000      -0.529171       -14.3995 
  15   0.0000      -0.189640        -5.1604 
  16   0.0000      -0.105544        -2.8720 
  17   0.0000      -0.067701        -1.8422 
  18   0.0000      -0.041515        -1.1297 
  19   0.0000      -0.029524        -0.8034 
  20   0.0000      -0.007869        -0.2141 
  21   0.0000       0.008692         0.2365 
  22   0.0000       0.020353         0.5538 
  23   0.0000       0.083067         2.2604 
  24   0.0000       0.104912         2.8548 
  25   0.0000       0.116868         3.1801 

                 SPIN DOWN ORBITALS
  NO   OCC          E(Eh)            E(eV) 
   0   1.0000      -1.550762       -42.1984 
   1   1.0000      -1.465122       -39.8680 
   2   1.0000      -1.147735       -31.2315 
   3   1.0000      -1.061138       -28.8750 
   4   1.0000      -1.004902       -27.3448 
   5   1.0000      -0.923626       -25.1331 
   6   1.0000      -0.891985       -24.2722 
   7   1.0000      -0.854748       -23.2589 
   8   1.0000      -0.779463       -21.2103 
   9   1.0000      -0.759340       -20.6627 
  10   1.0000      -0.754786       -20.5388 
  11   1.0000      -0.703543       -19.1444 
  12   1.0000      -0.693120       -18.8608 
  13   1.0000      -0.681033       -18.5319 
  14   0.0000      -0.218808        -5.9541 
  15   0.0000      -0.158726        -4.3192 
  16   0.0000      -0.099217        -2.6998 
  17   0.0000      -0.067115        -1.8263 
  18   0.0000      -0.040043        -1.0896 
  19   0.0000      -0.023490        -0.6392 
  20   0.0000       0.000876         0.0238 
  21   0.0000       0.011732         0.3193 
  22   0.0000       0.022812         0.6208 
  23   0.0000       0.085910         2.3377 
  24   0.0000       0.110660         3.0112 
*Only the first 10 virtual orbitals were printed.

                    ********************************
                    * MULLIKEN POPULATION ANALYSIS *
                    ********************************

--------------------------------------------
MULLIKEN ATOMIC CHARGES AND SPIN POPULATIONS
--------------------------------------------
   0 C :   -0.013291   -0.048185
   1 C :   -0.000724    0.910845
   2 C :    0.371482    0.082770
   3 O :   -0.029035   -0.040474
   4 O :    0.007783    0.024125
   5 H :    0.082001    0.022350
   6 H :    0.085892    0.002358
   7 H :    0.090371    0.060194
   8 H :    0.087002   -0.012377
   9 H :    0.214374    0.001853
  10 H :    0.104146   -0.003457
Sum of atomic charges         :    1.0000000
Sum of atomic spin populations:    1.0000000

-----------------------------------------------------
MULLIKEN REDUCED ORBITAL CHARGES AND SPIN POPULATIONS
-----------------------------------------------------
CHARGE
  0 C s       :     0.924386  s :     0.924386
      pz      :     1.062652  p :     3.021619
      px      :     1.030770
      py      :     0.928197
      dz2     :     0.011861  d :     0.067286
      dxz     :     0.018775
      dyz     :     0.010194
      dx2y2   :     0.006605
      dxy     :     0.019852

  1 C s       :     1.190112  s :     1.190112
      pz      :     0.984713  p :     2.687200
      px      :     0.922500
      py      :     0.779987
      dz2     :     0.009027  d :     0.123411
      dxz     :     0.018811
      dyz     :     0.022574
      dx2y2   :     0.038100
      dxy     :     0.034898

  2 C s       :     1.145891  s :     1.145891
      pz      :     0.621965  p :     2.246682
      px      :     0.790105
      py      :     0.834612
      dz2     :     0.014494  d :     0.235945
      dxz     :     0.041437
      dyz     :     0.038891
      dx2y2   :     0.058124
      dxy     :     0.082999

  3 O s       :     1.614528  s :     1.614528
      pz      :     1.602513  p :     4.363275
      px      :     1.623463
      py      :     1.137299
      dz2     :     0.004729  d :     0.051233
      dxz     :     0.005919
      dyz     :     0.013014
      dx2y2   :     0.010233
      dxy     :     0.017337

  4 O s       :     1.561776  s :     1.561776
      pz      :     1.608493  p :     4.393038
      px      :     1.223880
      py      :     1.560665
      dz2     :     0.004356  d :     0.037404
      dxz     :     0.006864
      dyz     :     0.004102
      dx2y2   :     0.009145
      dxy     :     0.012938

  5 H s       :     0.872135  s :     0.872135
      pz      :     0.021130  p :     0.045865
      px      :     0.015098
      py      :     0.009636

  6 H s       :     0.867290  s :     0.867290
      pz      :     0.010780  p :     0.046819
      px      :     0.015578
      py      :     0.020461

  7 H s       :     0.862862  s :     0.862862
      pz      :     0.018388  p :     0.046767
      px      :     0.017036
      py      :     0.011342

  8 H s       :     0.863155  s :     0.863155
      pz      :     0.020171  p :     0.049843
      px      :     0.022693
      py      :     0.006980

  9 H s       :     0.681935  s :     0.681935
      pz      :     0.029756  p :     0.103692
      px      :     0.032580
      py      :     0.041355

 10 H s       :     0.852086  s :     0.852086
      pz      :     0.008469  p :     0.043769
      px      :     0.015231
      py      :     0.020069


SPIN
  0 C s       :    -0.013667  s :    -0.013667
      pz      :    -0.017103  p :    -0.052002
      px      :    -0.013632
      py      :    -0.021266
      dz2     :     0.001239  d :     0.017483
      dxz     :     0.008042
      dyz     :     0.006139
      dx2y2   :     0.000240
      dxy     :     0.001823

  1 C s       :     0.090558  s :     0.090558
      pz      :     0.637478  p :     0.821715
      px      :     0.119311
      py      :     0.064926
      dz2     :    -0.000543  d :    -0.001428
      dxz     :    -0.001407
      dyz     :    -0.000149
      dx2y2   :     0.000412
      dxy     :     0.000258

  2 C s       :     0.006217  s :     0.006217
      pz      :     0.065881  p :     0.075743
      px      :     0.008812
      py      :     0.001050
      dz2     :    -0.000113  d :     0.000809
      dxz     :     0.001742
      dyz     :    -0.000318
      dx2y2   :    -0.000407
      dxy     :    -0.000095

  3 O s       :    -0.003844  s :    -0.003844
      pz      :    -0.031710  p :    -0.045592
      px      :     0.000197
      py      :    -0.014079
      dz2     :     0.000171  d :     0.008961
      dxz     :     0.000628
      dyz     :     0.007035
      dx2y2   :     0.000972
      dxy     :     0.000156

  4 O s       :     0.000429  s :     0.000429
      pz      :     0.015776  p :     0.023383
      px      :     0.005783
      py      :     0.001823
      dz2     :     0.000048  d :     0.000313
      dxz     :     0.000221
      dyz     :     0.000008
      dx2y2   :     0.000010
      dxy     :     0.000026

  5 H s       :     0.023127  s :     0.023127
      pz      :    -0.000242  p :    -0.000777
      px      :    -0.000248
      py      :    -0.000288

  6 H s       :     0.002738  s :     0.002738
      pz      :    -0.000031  p :    -0.000381
      px      :    -0.000275
      py      :    -0.000074

  7 H s       :     0.061147  s :     0.061147
      pz      :    -0.000036  p :    -0.000953
      px      :    -0.000525
      py      :    -0.000392

  8 H s       :    -0.025536  s :    -0.025536
      pz      :     0.009063  p :     0.013159
      px      :     0.003954
      py      :     0.000141

  9 H s       :    -0.001114  s :    -0.001114
      pz      :     0.000953  p :     0.002967
      px      :     0.000152
      py      :     0.001862

 10 H s       :    -0.004776  s :    -0.004776
      pz      :     0.001212  p :     0.001319
      px      :     0.000069
      py      :     0.000038



                     *******************************
                     * LOEWDIN POPULATION ANALYSIS *
                     *******************************

-------------------------------------------
LOEWDIN ATOMIC CHARGES AND SPIN POPULATIONS
-------------------------------------------
   0 C :   -0.083449    0.042247
   1 C :    0.076723    0.729721
   2 C :    0.164461    0.077670
   3 O :    0.131658    0.011532
   4 O :    0.178146    0.025915
   5 H :    0.077703    0.017036
   6 H :    0.084435    0.000478
   7 H :    0.083357    0.044844
   8 H :    0.046683    0.037806
   9 H :    0.116743    0.010158
  10 H :    0.123540    0.002592

----------------------------------------------------
LOEWDIN REDUCED ORBITAL CHARGES AND SPIN POPULATIONS
----------------------------------------------------
CHARGE
  0 C s       :     0.764884  s :     0.764884
      pz      :     1.060960  p :     3.088689
      px      :     1.041963
      py      :     0.985767
      dz2     :     0.038660  d :     0.229875
      dxz     :     0.064228
      dyz     :     0.031304
      dx2y2   :     0.027135
      dxy     :     0.068548

  1 C s       :     0.850876  s :     0.850876
      pz      :     0.932829  p :     2.712557
      px      :     0.968774
      py      :     0.810955
      dz2     :     0.030354  d :     0.359844
      dxz     :     0.052885
      dyz     :     0.061690
      dx2y2   :     0.107720
      dxy     :     0.107195

  2 C s       :     0.766672  s :     0.766672
      pz      :     0.637122  p :     2.448900
      px      :     0.876416
      py      :     0.935361
      dz2     :     0.051795  d :     0.619967
      dxz     :     0.095739
      dyz     :     0.088542
      dx2y2   :     0.144353
      dxy     :     0.239538

  3 O s       :     1.335937  s :     1.335937
      pz      :     1.500688  p :     4.402638
      px      :     1.601626
      py      :     1.300323
      dz2     :     0.011754  d :     0.129767
      dxz     :     0.007985
      dyz     :     0.031323
      dx2y2   :     0.036173
      dxy     :     0.042532

  4 O s       :     1.316026  s :     1.316026
      pz      :     1.512935  p :     4.418150
      px      :     1.336297
      py      :     1.568917
      dz2     :     0.009872  d :     0.087679
      dxz     :     0.015067
      dyz     :     0.005588
      dx2y2   :     0.022484
      dxy     :     0.034668

  5 H s       :     0.772508  s :     0.772508
      pz      :     0.061620  p :     0.149789
      px      :     0.049987
      py      :     0.038182

  6 H s       :     0.766560  s :     0.766560
      pz      :     0.042832  p :     0.149005
      px      :     0.050329
      py      :     0.055844

  7 H s       :     0.764286  s :     0.764286
      pz      :     0.056908  p :     0.152358
      px      :     0.053543
      py      :     0.041906

  8 H s       :     0.792833  s :     0.792833
      pz      :     0.065814  p :     0.160484
      px      :     0.066156
      py      :     0.028513

  9 H s       :     0.589163  s :     0.589163
      pz      :     0.080822  p :     0.294093
      px      :     0.076782
      py      :     0.136489

 10 H s       :     0.753192  s :     0.753192
      pz      :     0.023941  p :     0.123268
      px      :     0.043303
      py      :     0.056024


SPIN
  0 C s       :    -0.002569  s :    -0.002569
      pz      :     0.000977  p :    -0.012093
      px      :    -0.004399
      py      :    -0.008672
      dz2     :     0.004947  d :     0.056910
      dxz     :     0.023893
      dyz     :     0.018835
      dx2y2   :     0.000914
      dxy     :     0.008321

  1 C s       :     0.035932  s :     0.035932
      pz      :     0.548160  p :     0.692422
      px      :     0.099048
      py      :     0.045214
      dz2     :    -0.000508  d :     0.001367
      dxz     :     0.002795
      dyz     :    -0.000623
      dx2y2   :     0.000103
      dxy     :    -0.000399

  2 C s       :     0.003640  s :     0.003640
      pz      :     0.060460  p :     0.071177
      px      :     0.006378
      py      :     0.004339
      dz2     :    -0.000068  d :     0.002853
      dxz     :     0.004674
      dyz     :    -0.001180
      dx2y2   :    -0.000681
      dxy     :     0.000108

  3 O s       :    -0.000354  s :    -0.000354
      pz      :    -0.016278  p :    -0.014528
      px      :     0.008293
      py      :    -0.006543
      dz2     :     0.000490  d :     0.026414
      dxz     :     0.002796
      dyz     :     0.017476
      dx2y2   :     0.004384
      dxy     :     0.001268

  4 O s       :     0.000530  s :     0.000530
      pz      :     0.014582  p :     0.023024
      px      :     0.005457
      py      :     0.002985
      dz2     :     0.000350  d :     0.002360
      dxz     :     0.001292
      dyz     :     0.000011
      dx2y2   :     0.000498
      dxy     :     0.000209

  5 H s       :     0.018135  s :     0.018135
      pz      :     0.000413  p :    -0.001099
      px      :    -0.000918
      py      :    -0.000594

  6 H s       :     0.001565  s :     0.001565
      pz      :     0.000239  p :    -0.001086
      px      :    -0.000541
      py      :    -0.000784

  7 H s       :     0.043976  s :     0.043976
      pz      :    -0.000256  p :     0.000868
      px      :     0.000140
      py      :     0.000984

  8 H s       :    -0.013531  s :    -0.013531
      pz      :     0.037486  p :     0.051337
      px      :     0.011090
      py      :     0.002761

  9 H s       :     0.002283  s :     0.002283
      pz      :     0.002868  p :     0.007875
      px      :     0.000341
      py      :     0.004666

 10 H s       :    -0.002433  s :    -0.002433
      pz      :     0.004371  p :     0.005024
      px      :     0.000361
      py      :     0.000292



                      *****************************
                      * MAYER POPULATION ANALYSIS *
                      *****************************

  NA   - Mulliken gross atomic population
  ZA   - Total nuclear charge
  QA   - Mulliken gross atomic charge
  VA   - Mayer's total valence
  BVA  - Mayer's bonded valence
  FA   - Mayer's free valence

  ATOM       NA         ZA         QA         VA         BVA        FA
  0 C      4.0133     4.0000    -0.0133     3.9712     3.9678     0.0034
  1 C      4.0007     4.0000    -0.0007     3.8390     3.1537     0.6853
  2 C      3.6285     4.0000     0.3715     3.9627     3.9563     0.0065
  3 O      6.0290     6.0000    -0.0290     2.3630     2.3605     0.0025
  4 O      5.9922     6.0000     0.0078     2.4773     2.4765     0.0008
  5 H      0.9180     1.0000     0.0820     1.0405     1.0399     0.0006
  6 H      0.9141     1.0000     0.0859     1.0448     1.0448     0.0000
  7 H      0.9096     1.0000     0.0904     1.0400     1.0361     0.0039
  8 H      0.9130     1.0000     0.0870     1.0343     1.0331     0.0012
  9 H      0.7856     1.0000     0.2144     1.0576     1.0576     0.0000
 10 H      0.8959     1.0000     0.1041     1.0251     1.0251     0.0000

  Mayer bond orders larger than 0.100000
B(  0-C ,  1-C ) :   1.0814 B(  0-C ,  5-H ) :   0.9634 B(  0-C ,  6-H ) :   0.9650 
B(  0-C ,  7-H ) :   0.9467 B(  1-C ,  3-O ) :   0.8846 B(  1-C ,  8-H ) :   1.0088 
B(  2-C ,  3-O ) :   1.4162 B(  2-C ,  4-O ) :   1.4039 B(  2-C , 10-H ) :   1.0263 
B(  4-O ,  9-H ) :   0.9828 

-------
TIMINGS
-------

Total SCF time: 0 days 0 hours 0 min 19 sec 

Total time                  ....      19.161 sec
Sum of individual times     ....      19.148 sec  ( 99.9%)

SCF preparation             ....       0.364 sec  (  1.9%)
Fock matrix formation       ....      18.613 sec  ( 97.1%)
  Startup                   ....       0.009 sec  (  0.0% of F)
  Split-RI-J                ....       0.737 sec  (  4.0% of F)
  Chain of spheres X        ....      15.957 sec  ( 85.7% of F)
  XC integration            ....       1.868 sec  ( 10.0% of F)
    XC Preparation          ....       0.000 sec  (  0.0% of XC)
    Basis function eval.    ....       0.506 sec  ( 27.1% of XC)
    Density eval.           ....       0.405 sec  ( 21.7% of XC)
    XC-Functional eval.     ....       0.274 sec  ( 14.6% of XC)
    XC-Potential eval.      ....       0.551 sec  ( 29.5% of XC)
Diagonalization             ....       0.000 sec  (  0.0%)
Density matrix formation    ....       0.017 sec  (  0.1%)
Total Energy calculation    ....       0.014 sec  (  0.1%)
Population analysis         ....       0.011 sec  (  0.1%)
Orbital Transformation      ....       0.017 sec  (  0.1%)
Orbital Orthonormalization  ....       0.000 sec  (  0.0%)
DIIS solution               ....       0.077 sec  (  0.4%)
SOSCF solution              ....       0.034 sec  (  0.2%)
Finished LeanSCF after  19.2 sec

Maximum memory used throughout the entire LEANSCF-calculation: 13.5 MB


-------------------------------------------------------------------------------
                          DFT DISPERSION CORRECTION                            
                                                                               
                                DFTD4 V3.4.0                                   
-------------------------------------------------------------------------------
The wB97X-3c composite method is recognized
Using three-body term ABC
Active option DFTDOPT                   ...         5   

-------------------------   ----------------
Dispersion correction           -0.006507736
-------------------------   ----------------


-------------------------   --------------------
FINAL SINGLE POINT ENERGY       -52.464636573652
-------------------------   --------------------



           ************************************************************
           *        Program running with 4 parallel MPI-processes     *
           *              working on a common directory               *
           ************************************************************

------------------------------------------------------------------------------
                              ORCA PROPERTY CALCULATIONS
------------------------------------------------------------------------------

GBWName                                 ... orca.gbw
Number of atoms                         ...     11
Number of basis functions               ...     95
Max core memory                         ...   8000 MB

Electric properties:
Dipole moment                           ... YES
Quadrupole moment                       ...  NO
Static polarizability (Dipole/Dipole)   ...  NO
Static polarizability (Dipole/Quad.)    ...  NO
Static polarizability (Quad./Quad.)     ...  NO
Static polarizability (Velocity)        ...  NO

Atomic electric properties:
Dipole moment                           ...  NO
Quadrupole moment                       ...  NO
Static polarizability                   ...  NO

Choice of electric origin               ... Center of mass
Position of electric origin             ...    -0.016085    -0.029138    -0.029335

General magnetic properties:
Magnetizability                         ...  NO

EPR properties:
g-Tensor (aka g-matrix)                 ...  NO
Zero-Field splitting spin-orbit         ...  NO
Zero-field splitting spin-spin          ...  NO
Hyperfine couplings                     ...  NO (   0 nuclei)
Quadrupole couplings                    ...  NO (   0 nuclei)
Contact density                         ...  NO (   0 nuclei)

NMR properties:
Chemical shifts                         ...  NO (   0 nuclei)
Spin-rotation constants                 ...  NO (   0 nuclei)
Spin-spin couplings                     ...  NO (   0 nuclei,    0 pairs)

Choice of magnetic origin               ... GIAO
Position of magnetic origin             ...     0.000000     0.000000     0.000000

Properties with geometric perturbations:
SCF Hessian                             ...  NO
IR spectrum                             ...  NO
VCD spectrum                            ...  NO
X-ray spectroscopy properties:
SCF XES/XAS/RIXS spectra                ...  NO


-------------
DIPOLE MOMENT
-------------

Method             : SCF
Type of density    : Electron Density
Multiplicity       :   2
Irrep              :   0
Energy             :   -52.4581288373655639 Eh
Relativity type    : 
Basis              : AO
                                X                 Y                 Z
Electronic contribution:     -0.420517730       4.935762561      -0.499045713
Nuclear contribution   :      0.042890378      -4.715263128       0.458823950
                        -----------------------------------------
Total Dipole Moment    :     -0.377627353       0.220499433      -0.040221763
                        -----------------------------------------
Magnitude (a.u.)       :      0.439135751
Magnitude (Debye)      :      1.116194373



--------------------
Rotational spectrum 
--------------------
 
Rotational constants in cm-1:             0.591469             0.095591             0.085504 
Rotational constants in MHz :         17731.783521          2865.753327          2563.335414 

Dipole components along the rotational axes: 
x,y,z [a.u.] :    -0.322132    -0.281587    -0.098892 
x,y,z [Debye]:    -0.818795    -0.715738    -0.251364 

 

Dipole moment calculation done in   0.0 sec 

Maximum memory used throughout the entire PROP-calculation: 6.3 MB

--------------------------------
SUGGESTED CITATIONS FOR THIS RUN
--------------------------------

Below you find a list of papers that are relevant to this ORCA run
We neither can nor want to force you to cite these papers, but we appreciate if you do
You receive ORCA, which is the product of decades of hard work by many enthusiastic individuals, for free
The only thing we kindly ask in return is that you cite our papers,
We deeply appreciate it, if you show your appreciation for ORCA by not just citing the generic ORCA reference.

Please note that relegating all ORCA citations to the supporting information does *not* help us.
SI sections are not indexed - citations you put there will not count into any citation statistics
But we need these citations in order to attract the funding resources that allow us to do what we are doing

Therefore, if you are a happy ORCA user, please consider citing a few of the papers listed below in the main body of your paper

In addition to the list printed below, the program has created the file orca.bibtex that contains the list in bibtex format
You can import this file easily into all common literature databanks and citation aid programs


List of essential papers. We consider these as the minimum necessary citations

  1. Neese,F.
     Software update: the ORCA program system, version 5.0
     WIRES Comput. Molec. Sci., 2022 12(1)e1606
     doi.org/10.1002/wcms.1606
  2. Mueller,M.; Hansen,A.; Grimme,S.
     wB97X-3c: A composite range-separated hybrid DFT method with a molecule-optimized polarized valence double-zeta basis set
     J. Chem. Phys., 2023 158 014103
     doi.org/10.1063/5.0133026

List of papers to cite with high priority. The work reported in these papers was absolutely
necessary for this run to complete.
Our perspective: the developers of density functionals and basis sets usually get cited in chemistry papers
Good! But without the algorithms to do something with them, the functionals or basis sets would not do anything.
Hence, in our opinion, the algorithm design and method developments papers are equally worthy of getting cited

  1. Neese,F.
     An improvement of the resolution of the identity approximation for the formation of the Coulomb matrix
     J. Comp. Chem., 2003 24(14)1740-1747
     doi.org/10.1002/jcc.10318
  2. Neese,F.; Wennmohs,F.; Hansen,A.; Becker,U.
     Efficient, approximate and parallel Hartree-Fock and hybrid DFT calculations. A 'chain-of-spheres' algorithm for the Hartree-Fock exchange
     Chem. Phys., 2009 356(1-3)98-109
     doi.org/10.1016/j.chemphys.2008.10.036
  3. Helmich-Paris,B.; de Souza,B.; Neese,F.; Izsák,R.
     An improved chain of spheres for exchange algorithm
     J. Chem. Phys., 2021 155 104109
     doi.org/doi: 10.1063/5.0058766.
  4. Neese,F.
     The SHARK Integral Generation and Digestion System
     J. Comp. Chem., 2022  1-16
     doi.org/10.1002/jcc.26942
  5. Caldeweyher,E.; Bannwarth,C.; Grimme,S.
     Extension of the D3 dispersion coefficient model
     J. Chem. Phys., 2017 147 034112
     doi.org/10.1063/1.4993215
  6. Caldeweyher,E.; Ehlert,S.; Hansen,A.; Neugebauer,H.; Spicher,S.; Bannwarth,C.; Grimme,S.
     A generally applicable atomic-charge dependent London dispersion correction
     J. Chem. Phys., 2019 150 154122
     doi.org/10.1063/1.5090222
  7. Caldeweyher,E.; Mewes,J.; Ehlert,S.; Grimme,S.
     Extension and evaluation of the D4 London-dispersion model for periodic systems
     Phys. Chem. Chem. Phys., 2020 22(16)8499-8512
     doi.org/10.1039/D0CP00502A
  8. Wittmann,L.; Gordiy,I.; Friede,M.; Helmich-Paris,B.; Grimme,S.; Hansen,A.; Bursch,M.
     Extension of the D3 and D4 London Dispersion Corrections to the full Actinides Series
     Phys. Chem. Chem. Phys., 2024 26(32)21379-21394
     doi.org/https://doi.org/10.1039/D4CP01514B 

List of suggested additional citations. These are papers that are important in the 'surrounding' of 
of this run, or papers that preceded the highly important papers. If you like your results we are grateful for a citation.

  1. Izsak,R.; Neese,F.
     An overlap fitted chain of spheres exchange method
     J. Chem. Phys., 2011 135 144105
     doi.org/10.1063/1.3646921
  2. Izsak,R.; Hansen,A.; Neese,F.
     The resolution of identity and chain of spheres approximations for the LPNO-CCSD singles Fock term
     Molec. Phys., 2012 110 2413-2417
     doi.org/10.1080/00268976.2012.687466
  3. Neese,F.
     The ORCA program system
     WIRES Comput. Molec. Sci., 2012 2(1)73-78
     doi.org/10.1002/wcms.81
  4. Izsak,R.; Neese,F.; Klopper,W.
     Robust fitting techniques in the chain of spheres approximation to the Fock exchange: The role of the complementary space
     J. Chem. Phys., 2013 139 
     doi.org/10.1063/1.4819264
  5. Neese,F.
     Software update: the ORCA program system, version 4.0
     WIRES Comput. Molec. Sci., 2018 8(1)1-6
     doi.org/10.1002/wcms.1327
  6. Neese,F.; Wennmohs,F.; Becker,U.; Riplinger,C.
     The ORCA quantum chemistry program package
     J. Chem. Phys., 2020 152 Art. No. L224108
     doi.org/10.1063/5.0004608

List of optional additional citations

  1. Neese,F.
     Approximate second-order SCF convergence for spin unrestricted wavefunctions
     Chem. Phys. Lett., 2000 325(1-3)93-98
     doi.org/10.1016/s0009-2614(00)00662-x

Timings for individual modules:

Sum of individual times          ...       22.710 sec (=   0.378 min)
Startup calculation              ...        1.295 sec (=   0.022 min)   5.7 %
SCF iterations                   ...       20.891 sec (=   0.348 min)  92.0 %
Property calculations            ...        0.524 sec (=   0.009 min)   2.3 %
                             ****ORCA TERMINATED NORMALLY****
TOTAL RUN TIME: 0 days 0 hours 0 minutes 23 seconds 266 msec
