 Entering Gaussian System
 *********************************************
 Gaussian 98:
 frequency output generated by the xtb code
 *********************************************
                         Standard orientation:
 --------------------------------------------------------------------
  Center     Atomic     Atomic              Coordinates (Angstroms)
  Number     Number      Type              X           Y           Z
 --------------------------------------------------------------------
    1          6             0       -0.587182   -6.686255   -0.556855
    2          6             0        0.304791   -6.627180    0.499354
    3          1             0       -0.249924   -6.729537   -1.590898
    4          1             0       -0.211726   -7.728658    0.090771
    5          1             0       -1.651936   -6.506646   -0.419368
    6          1             0        1.381752   -6.621322    0.341169
    7          1             0       -0.020265   -6.398446    1.512724
 --------------------------------------------------------------------
     1 basis functions        1 primitive gaussians
     1 alpha electrons        1 beta electrons

 Harmonic frequencies (cm**-1), IR intensities (km*mol⁻¹),
 Raman scattering activities (A**4/amu), Raman depolarization ratios,
 reduced masses (AMU), force constants (mDyne/A) and normal coordinates:
                      1                      2                      3
                        a                      a                      a 
 Frequencies --   504.5709               785.5250               981.5036
 Red. masses --     3.7957                 1.1482                 1.0986
 Frc consts  --     0.0000                 0.0000                 0.0000
 IR Inten    --    15.4200                 0.1100                 0.0002
 Raman Activ --     0.0000                 0.0000                 0.0000
 Depolar     --     0.0000                 0.0000                 0.0000
 Atom AN      X      Y      Z        X      Y      Z        X      Y      Z
   1   6     0.04  -0.34   0.11     0.06  -0.01  -0.05     0.05  -0.01  -0.04
   2   6     0.08   0.35   0.03     0.06  -0.01  -0.05    -0.05   0.01   0.04
   3   1     0.03   0.15   0.03    -0.43  -0.11  -0.15    -0.02   0.50  -0.04
   4   1    -0.52  -0.03  -0.61     0.25  -0.04  -0.21    -0.00  -0.00  -0.00
   5   1     0.05   0.15   0.01     0.10   0.16   0.43    -0.06  -0.48   0.10
   6   1     0.03  -0.15   0.05     0.08  -0.07   0.46    -0.01  -0.50   0.01
   7   1     0.01  -0.15   0.06    -0.42   0.13  -0.18     0.08   0.49  -0.07
                      4                      5                      6
                        a                      a                      a 
 Frequencies --  1018.8150              1080.1455              1113.5453
 Red. masses --     1.5982                 2.3756                 4.9045
 Frc consts  --     0.0000                 0.0000                 0.0000
 IR Inten    --   100.2441                87.3409                 0.0000
 Raman Activ --     0.0000                 0.0000                 0.0000
 Depolar     --     0.0000                 0.0000                 0.0000
 Atom AN      X      Y      Z        X      Y      Z        X      Y      Z
   1   6    -0.12   0.02   0.10    -0.01   0.24  -0.06     0.32  -0.05  -0.27
   2   6    -0.12   0.02   0.10     0.04   0.25   0.00    -0.32   0.05   0.27
   3   1     0.16  -0.22   0.09    -0.11  -0.45  -0.04    -0.34  -0.05  -0.21
   4   1     0.60  -0.10  -0.50     0.01   0.10  -0.01    -0.00  -0.00  -0.00
   5   1    -0.02   0.20  -0.20    -0.10  -0.45  -0.05     0.16   0.08   0.36
   6   1    -0.05  -0.24  -0.15     0.04  -0.44   0.15    -0.15   0.02  -0.37
   7   1     0.18   0.22   0.04     0.05  -0.44   0.14     0.33  -0.05   0.22
                      7                      8                      9
                        a                      a                      a 
 Frequencies --  1128.3149              1297.9863              1347.4695
 Red. masses --     3.0171                 3.7251                 2.0368
 Frc consts  --     0.0000                 0.0000                 0.0000
 IR Inten    --     7.4997                10.6736                48.4777
 Raman Activ --     0.0000                 0.0000                 0.0000
 Depolar     --     0.0000                 0.0000                 0.0000
 Atom AN      X      Y      Z        X      Y      Z        X      Y      Z
   1   6     0.09   0.28   0.05     0.23   0.09   0.25     0.14  -0.02   0.17
   2   6     0.05  -0.27   0.11    -0.22   0.06  -0.27     0.14   0.04   0.16
   3   1    -0.07  -0.37  -0.00     0.37  -0.11   0.19    -0.45   0.09  -0.12
   4   1    -0.33  -0.02  -0.39    -0.00  -0.08   0.01     0.03   0.00   0.04
   5   1    -0.06  -0.37  -0.01     0.11  -0.07   0.41    -0.03   0.02  -0.47
   6   1    -0.01   0.36  -0.09    -0.12  -0.14  -0.39    -0.04  -0.12  -0.46
   7   1    -0.02   0.36  -0.08    -0.38  -0.10  -0.17    -0.46  -0.05  -0.11
                     10                     11                     12
                        a                      a                      a 
 Frequencies --  1489.8028              2027.2618              3005.6514
 Red. masses --     8.4947                 1.7852                 1.4788
 Frc consts  --     0.0000                 0.0000                 0.0000
 IR Inten    --     9.9755                27.1116                53.4945
 Raman Activ --     0.0000                 0.0000                 0.0000
 Depolar     --     0.0000                 0.0000                 0.0000
 Atom AN      X      Y      Z        X      Y      Z        X      Y      Z
   1   6    -0.38  -0.04  -0.44     0.07  -0.14   0.11     0.09  -0.02   0.11
   2   6     0.38   0.01   0.45    -0.09  -0.15  -0.08     0.10   0.03   0.11
   3   1     0.27  -0.04  -0.00    -0.00   0.01   0.02     0.16  -0.02  -0.45
   4   1     0.01   0.15  -0.02     0.06   0.96  -0.11     0.00   0.00   0.01
   5   1    -0.05   0.02   0.27     0.02   0.00   0.00    -0.47   0.08   0.07
   6   1     0.05  -0.05  -0.26    -0.02   0.01  -0.00    -0.49  -0.00   0.08
   7   1    -0.27   0.00   0.01     0.00   0.00  -0.02     0.16  -0.11  -0.46
                     13                     14                     15
                        a                      a                      a 
 Frequencies --  3009.5466              3020.0079              3042.3017
 Red. masses --     1.5698                 2.1036                 2.1510
 Frc consts  --     0.0000                 0.0000                 0.0000
 IR Inten    --     0.7304                 0.0011                66.0686
 Raman Activ --     0.0000                 0.0000                 0.0000
 Depolar     --     0.0000                 0.0000                 0.0000
 Atom AN      X      Y      Z        X      Y      Z        X      Y      Z
   1   6     0.10  -0.02   0.13    -0.17   0.03   0.14     0.17  -0.03  -0.15
   2   6    -0.10  -0.03  -0.12     0.17  -0.03  -0.14     0.17  -0.03  -0.14
   3   1     0.17  -0.02  -0.47     0.14  -0.02  -0.45    -0.14   0.02   0.45
   4   1    -0.00  -0.01   0.00     0.00  -0.00  -0.00     0.01  -0.00  -0.01
   5   1    -0.48   0.08   0.07     0.46  -0.08  -0.05    -0.47   0.08   0.05
   6   1     0.47   0.00  -0.08    -0.47  -0.01   0.06    -0.47  -0.01   0.06
   7   1    -0.15   0.10   0.44    -0.13   0.10   0.45    -0.13   0.10   0.44
