7
 energy: -6.274545907097 gnorm: 0.032270148928 xtb: 6.7.1 (edcfbbe)
C           -0.58718179830362       -6.68625461634831       -0.55685467749385
C            0.30479063205521       -6.62717978455385        0.49935432024099
H           -0.24992401916786       -6.72953603040213       -1.59089778457154
H           -0.21172642206794       -7.72865690926559        0.09077057505137
H           -1.65193566499380       -6.50664568062243       -0.41936805967411
H            1.38175214468265       -6.62132123815267        0.34116909703832
H           -0.02026515389262       -6.39844568965793        1.51272384025786
