7
 energy: -6.274545907130 gnorm: 0.032269925972 xtb: 6.7.1 (edcfbbe)
C           -0.57846312288062       -6.63157403639474       -0.55669158429507
C            0.30343214579387       -6.57363785373976        0.48799222558667
H           -0.22290468768885       -6.76304888638130       -1.57349739030891
H           -0.21043919492167       -7.70399840949619        0.08822311892875
H           -1.64600993762284       -6.53727663869666       -0.38606043273226
H            1.37119058574494       -6.65725400292348        0.31309506564158
H           -0.05104798842483       -6.43125532236782        1.50375014717925
7
 energy: -6.276727093131 gnorm: 0.015978849458 xtb: 6.7.1 (edcfbbe)
C           -0.58819663309902       -6.70838171756357       -0.55379360114586
C            0.30300190284813       -6.64924160911322        0.50163817458346
H           -0.23212573319074       -6.70777608496053       -1.59095872081830
H           -0.21469816996400       -7.77404640340761        0.09619593086930
H           -1.65109104911728       -6.48245409951796       -0.40631841251899
H            1.38352661505110       -6.60079051551989        0.32185688383270
H           -0.03465913252818       -6.37535471991717        1.50819089519769
7
 energy: -6.277598961362 gnorm: 0.006821329754 xtb: 6.7.1 (edcfbbe)
C           -0.58771695611735       -6.68407926968106       -0.55786003192587
C            0.30566974182443       -6.62480875336049        0.50009884265130
H           -0.24403330920340       -6.72820930873199       -1.58896488588062
H           -0.21232255645296       -7.73852132612723        0.09208586521753
H           -1.65091317303724       -6.50477373387026       -0.41403880669130
H            1.38075118891660       -6.62064167137689        0.33474122349185
H           -0.02567713593009       -6.39701108685203        1.51074894313713
7
 energy: -6.277648321896 gnorm: 0.004119616236 xtb: 6.7.1 (edcfbbe)
C           -0.58759080473241       -6.68486602393383       -0.55760265678131
C            0.30543600656726       -6.62569621403239        0.49989877818182
H           -0.24770158953601       -6.72915477548962       -1.59001847792557
H           -0.21197604761911       -7.73300642670118        0.09131477720418
H           -1.65142136494106       -6.50609428311428       -0.41740075836635
H            1.38125963397006       -6.62118211181915        0.33872845864498
H           -0.02224803370873       -6.39804531490951        1.51189102904226
7
 energy: -6.277664649055 gnorm: 0.000287390242 xtb: 6.7.1 (edcfbbe)
C           -0.58721999812561       -6.68628646930995       -0.55694257923983
C            0.30486859932014       -6.62709774768920        0.49938889479593
H           -0.25016457772750       -6.72953035006519       -1.59092546382633
H           -0.21161944804230       -7.72851255495239        0.09078847850307
H           -1.65187342459337       -6.50671063958363       -0.41966092794512
H            1.38171613125308       -6.62137187004762        0.34145775661073
H           -0.01994948208445       -6.39853551835197        1.51270499110157
7
 energy: -6.277664715077 gnorm: 0.000069403690 xtb: 6.7.1 (edcfbbe)
C           -0.58714484535517       -6.68625671882485       -0.55686839673968
C            0.30482358880598       -6.62717906011245        0.49934381767038
H           -0.24988323011377       -6.72953456225678       -1.59091040209420
H           -0.21168627175988       -7.72865817616808        0.09075634707438
H           -1.65190013237330       -6.50665359809284       -0.41938518214940
H            1.38178562290742       -6.62131459867534        0.34116236400859
H           -0.02023693211127       -6.39844843586962        1.51271260222994
