1
 energy: -0.393482763936 gnorm: 0.000000000000 xtb: 6.7.1 (edcfbbe)
H           -4.16626545936229       -5.02303745494554       -0.66999312019468
