 Entering Gaussian System
 *********************************************
 Gaussian 98:
 frequency output generated by the xtb code
 *********************************************
                         Standard orientation:
 --------------------------------------------------------------------
  Center     Atomic     Atomic              Coordinates (Angstroms)
  Number     Number      Type              X           Y           Z
 --------------------------------------------------------------------
    1          6             0        0.675716   -2.158798   -0.182740
    2          6             0        1.117658   -0.944929    0.424026
    3          6             0        1.607527    1.325817   -0.149741
    4          8             0        1.388134    0.182570    0.150380
    5          1             0        1.147324   -3.031398    0.270256
    6          1             0       -0.410869   -2.271464   -0.079012
    7          1             0        0.890002   -2.113575   -1.261777
    8          1             0        2.519184    1.876072    0.008665
 --------------------------------------------------------------------
     1 basis functions        1 primitive gaussians
     1 alpha electrons        1 beta electrons

 Harmonic frequencies (cm**-1), IR intensities (km*mol⁻¹),
 Raman scattering activities (A**4/amu), Raman depolarization ratios,
 reduced masses (AMU), force constants (mDyne/A) and normal coordinates:
                      1                      2                      3
                        a                      a                      a 
 Frequencies --   166.2905               220.9366               386.9217
 Red. masses --     9.9982                 6.6799                13.3267
 Frc consts  --     0.0000                 0.0000                 0.0000
 IR Inten    --    54.6871                 6.4968                28.4094
 Raman Activ --     0.0000                 0.0000                 0.0000
 Depolar     --     0.0000                 0.0000                 0.0000
 Atom AN      X      Y      Z        X      Y      Z        X      Y      Z
   1   6     0.15   0.28  -0.30     0.18  -0.17   0.08     0.02   0.09   0.02
   2   6    -0.08  -0.02   0.56    -0.35   0.11  -0.12     0.47  -0.14   0.17
   3   6     0.08  -0.28  -0.38     0.36   0.04   0.18     0.26  -0.05   0.16
   4   8    -0.12  -0.07   0.20    -0.23   0.09  -0.19    -0.67   0.09  -0.30
   5   1     0.12   0.03  -0.26     0.36   0.03  -0.14    -0.12  -0.03   0.04
   6   1     0.06  -0.03   0.06     0.11  -0.31   0.38    -0.02   0.15  -0.07
   7   1    -0.12   0.27  -0.10    -0.31   0.04  -0.04     0.07  -0.01   0.02
   8   1    -0.07   0.05  -0.08     0.11  -0.04   0.09     0.13  -0.10   0.00
                      4                      5                      6
                        a                      a                      a 
 Frequencies --   396.4248               393.2169               760.7713
 Red. masses --    13.2243                 3.0341                 3.4824
 Frc consts  --     0.0000                 0.0000                 0.0000
 IR Inten    --    30.4953               101.3187               456.5184
 Raman Activ --     0.0000                 0.0000                 0.0000
 Depolar     --     0.0000                 0.0000                 0.0000
 Atom AN      X      Y      Z        X      Y      Z        X      Y      Z
   1   6    -0.00  -0.15  -0.04    -0.11  -0.04   0.05    -0.16  -0.24  -0.12
   2   6     0.12  -0.04  -0.38     0.20  -0.05  -0.15     0.01  -0.02   0.13
   3   6     0.14  -0.02  -0.29     0.14  -0.10  -0.23     0.24   0.00   0.17
   4   8    -0.27   0.26   0.68    -0.06   0.06   0.08    -0.01   0.13  -0.01
   5   1     0.03  -0.03  -0.00    -0.04  -0.01   0.02     0.02   0.02   0.07
   6   1    -0.00  -0.02   0.01    -0.03   0.03   0.13    -0.03  -0.16  -0.11
   7   1    -0.01  -0.10  -0.02    -0.12  -0.03   0.00     0.06  -0.09  -0.01
   8   1     0.15  -0.14  -0.22    -0.38   0.42   0.68    -0.27   0.63  -0.51
                      7                      8                      9
                        a                      a                      a 
 Frequencies --   914.4985               872.4860               980.9749
 Red. masses --     8.8071                 4.4115                 3.9358
 Frc consts  --     0.0000                 0.0000                 0.0000
 IR Inten    --    15.8967                49.3577                27.9602
 Raman Activ --     0.0000                 0.0000                 0.0000
 Depolar     --     0.0000                 0.0000                 0.0000
 Atom AN      X      Y      Z        X      Y      Z        X      Y      Z
   1   6     0.23   0.50   0.04     0.26  -0.25  -0.28    -0.23   0.11  -0.34
   2   6    -0.09   0.04  -0.34    -0.13  -0.00   0.21     0.14  -0.05   0.21
   3   6    -0.01  -0.41   0.18    -0.01   0.17  -0.01    -0.06   0.08  -0.05
   4   8    -0.08  -0.21   0.04     0.04   0.09  -0.01     0.04   0.03   0.01
   5   1    -0.00   0.23   0.26    -0.34  -0.17   0.13     0.18   0.36   0.37
   6   1     0.06   0.20   0.18     0.02   0.45   0.31     0.02  -0.38   0.17
   7   1    -0.07  -0.18  -0.02    -0.29  -0.36  -0.13     0.05  -0.45  -0.06
   8   1    -0.14   0.14  -0.20     0.03   0.01  -0.01     0.08  -0.16   0.13
                     10                     11                     12
                        a                      a                      a 
 Frequencies --  1246.7286              1393.8129              1323.4139
 Red. masses --     2.0204                10.3199                 3.1220
 Frc consts  --     0.0000                 0.0000                 0.0000
 IR Inten    --   114.3301               159.4796                56.2052
 Raman Activ --     0.0000                 0.0000                 0.0000
 Depolar     --     0.0000                 0.0000                 0.0000
 Atom AN      X      Y      Z        X      Y      Z        X      Y      Z
   1   6     0.18   0.15   0.15    -0.12  -0.22  -0.06    -0.05   0.27   0.17
   2   6     0.04   0.03   0.02     0.15   0.60   0.06    -0.09  -0.18   0.03
   3   6    -0.02  -0.05   0.01    -0.12  -0.53   0.13     0.06   0.18  -0.05
   4   8     0.02   0.07   0.00     0.05   0.22  -0.05    -0.02  -0.08   0.01
   5   1    -0.23  -0.12   0.01     0.14  -0.06  -0.22     0.20  -0.16  -0.57
   6   1     0.00  -0.39  -0.53    -0.04   0.10  -0.05    -0.01   0.09  -0.02
   7   1    -0.58  -0.23  -0.12     0.04  -0.24  -0.01     0.19  -0.61   0.03
   8   1    -0.01  -0.02   0.01    -0.06  -0.15   0.04    -0.00   0.09  -0.01
                     13                     14                     15
                        a                      a                      a 
 Frequencies --  1308.2329              1975.5933              2852.4642
 Red. masses --     1.6788                13.9894                 1.7677
 Frc consts  --     0.0000                 0.0000                 0.0000
 IR Inten    --    34.9831               156.7830                34.8429
 Raman Activ --     0.0000                 0.0000                 0.0000
 Depolar     --     0.0000                 0.0000                 0.0000
 Atom AN      X      Y      Z        X      Y      Z        X      Y      Z
   1   6    -0.04  -0.17   0.06    -0.02  -0.07  -0.05    -0.12  -0.02   0.23
   2   6    -0.02  -0.12   0.05     0.16   0.55  -0.01     0.00   0.01   0.01
   3   6     0.01   0.08  -0.04     0.08   0.32  -0.07    -0.00  -0.00  -0.00
   4   8    -0.00  -0.04   0.01    -0.19  -0.70   0.13    -0.00  -0.00   0.00
   5   1     0.55   0.35   0.12    -0.02  -0.01   0.00    -0.01  -0.02   0.05
   6   1    -0.10   0.49  -0.39     0.00  -0.03  -0.03     0.26   0.03   0.02
   7   1    -0.30   0.00  -0.06    -0.05  -0.03  -0.01     0.17   0.03  -0.91
   8   1     0.02   0.00   0.04     0.03   0.09  -0.01     0.01   0.01   0.00
                     16                     17                     18
                        a                      a                      a 
 Frequencies --  2901.6880              2995.1861              3049.7144
 Red. masses --     1.6387                 1.6314                 1.8496
 Frc consts  --     0.0000                 0.0000                 0.0000
 IR Inten    --    67.0804                62.3317               111.8848
 Raman Activ --     0.0000                 0.0000                 0.0000
 Depolar     --     0.0000                 0.0000                 0.0000
 Atom AN      X      Y      Z        X      Y      Z        X      Y      Z
   1   6     0.23  -0.01   0.05    -0.08   0.20  -0.10    -0.00   0.02  -0.01
   2   6     0.01   0.01   0.00     0.00   0.01  -0.00     0.00   0.01  -0.00
   3   6     0.01   0.00   0.00     0.02   0.01   0.00    -0.22  -0.16  -0.03
   4   8     0.00  -0.01   0.00    -0.00  -0.00   0.00    -0.01   0.01  -0.01
   5   1    -0.02   0.11  -0.05     0.42  -0.76   0.40     0.04  -0.07   0.03
   6   1    -0.91  -0.11   0.10    -0.15   0.02  -0.00    -0.04  -0.01   0.00
   7   1     0.09   0.01  -0.26    -0.01   0.03  -0.03    -0.00   0.00  -0.00
   8   1    -0.02  -0.01  -0.00    -0.07  -0.05  -0.01     0.79   0.53   0.13
