8
 energy: -11.909290255122 gnorm: 0.124500284772 xtb: 6.7.1 (edcfbbe)
C            0.69253252350697       -2.14510202543644       -0.20047668689077
C            0.94631271864544       -0.91216813574888        0.50901407100428
C            1.53696681214605        1.40483491412288       -0.26361885991572
O            1.41522744727467        0.15157393166579        0.16532543038565
H            1.05661921934332       -2.98518854989624        0.38980761929014
H           -0.39638232435654       -2.24197005365638       -0.26944566109551
H            1.13524583431913       -2.11842786319577       -1.19693965379398
H            2.54819307912097        1.71079066214505        0.04640855101591
8
 energy: -11.923003571182 gnorm: 0.080964295257 xtb: 6.7.1 (edcfbbe)
C            0.68496935945927       -2.14684368090799       -0.18928651116304
C            0.96133258084417       -0.89928933801193        0.46610708867286
C            1.55353862103537        1.36949282039924       -0.22053052607133
O            1.41593724638456        0.16508333746095        0.16660132874231
H            1.05605598040182       -2.99507531374255        0.39053885957958
H           -0.40379321347911       -2.25962295145969       -0.26869411948398
H            1.11624559083419       -2.13315408130595       -1.19576520946810
H            2.55042914451974        1.76375208756793        0.03110389919169
8
 energy: -11.928737404076 gnorm: 0.069492295950 xtb: 6.7.1 (edcfbbe)
C            0.67302041568980       -2.14563319936536       -0.17633151414064
C            0.98626412525066       -0.89034343281551        0.41990718781173
C            1.58816205202841        1.30251553108596       -0.18493762495687
O            1.40110121735314        0.19933505007131        0.19575823332996
H            1.07432802420267       -2.99832573487054        0.37864355677723
H           -0.41301648681108       -2.27918620062497       -0.26166349726567
H            1.08211993346869       -2.13826780539774       -1.20099277785133
H            2.54273602881772        1.81424867191685        0.00969124629557
8
 energy: -11.929762379040 gnorm: 0.028401172483 xtb: 6.7.1 (edcfbbe)
C            0.66671533960110       -2.16611097530422       -0.17073943134748
C            0.99737149984425       -0.88465221006497        0.37266547720753
C            1.59144456178803        1.37708486596065       -0.11330197904698
O            1.39620829661224        0.19366321848602        0.09088969117116
H            1.08676739160065       -2.99609498771472        0.40234747152900
H           -0.41959682682102       -2.30069606626432       -0.23041302004343
H            1.05162169596079       -2.18943813740038       -1.20720461817295
H            2.56418335141396        1.83058717230194        0.03583121870313
8
 energy: -11.931171355300 gnorm: 0.020224317591 xtb: 6.7.1 (edcfbbe)
C            0.66705958656626       -2.15847101546177       -0.17879992522493
C            1.00533979173943       -0.90891798470767        0.41437412939703
C            1.60611867124984        1.34203782948480       -0.17323290119349
O            1.38827196089395        0.19571992917096        0.18319886332827
H            1.09524167362785       -3.00439774910876        0.36431705010975
H           -0.41959727149185       -2.28966427869924       -0.22559657339838
H            1.04308822367594       -2.15121221448554       -1.21635215001641
H            2.54919267373859        1.83924836380723        0.01216631699814
8
 energy: -11.931813568419 gnorm: 0.013834065254 xtb: 6.7.1 (edcfbbe)
C            0.66659847646708       -2.15960721416771       -0.17701051563432
C            1.04580728409352       -0.91572149901047        0.40540928099166
C            1.59873192038655        1.33892215681009       -0.15242197635375
O            1.39510657435862        0.19429867456848        0.16303735392194
H            1.10557761034581       -3.01096019373866        0.34948074002084
H           -0.42288922546690       -2.27887310146279       -0.19049489078114
H            1.00722980004754       -2.15328905679097       -1.23032112712446
H            2.53855286976779        1.84957311379205        0.01239594495918
8
 energy: -11.932172168328 gnorm: 0.008937343650 xtb: 6.7.1 (edcfbbe)
C            0.66823107087491       -2.16119573284641       -0.17669421228602
C            1.08092856554987       -0.92792916546662        0.40662396939111
C            1.59891870113678        1.33826036752263       -0.14552097817294
O            1.39294855980336        0.19119153148057        0.15577675624694
H            1.11724749402435       -3.02057747883920        0.32684339160997
H           -0.42319150077559       -2.26962649518900       -0.15459073286061
H            0.96996774150370       -2.14671374781475       -1.24278576509542
H            2.52966467788263        1.86093360115280        0.01042238116690
8
 energy: -11.932383446871 gnorm: 0.004461098986 xtb: 6.7.1 (edcfbbe)
C            0.67267628697983       -2.16119593375287       -0.17777072650255
C            1.11560906442478       -0.94181554828377        0.41276479379349
C            1.60158062356195        1.33352550787024       -0.14428942733580
O            1.38539966532767        0.18725103658409        0.15231137586059
H            1.12823476047914       -3.03076243449956        0.29786264307930
H           -0.41886940513110       -2.26055321986183       -0.11524679810219
H            0.92925402540368       -2.13375677171743       -1.25327703778248
H            2.52083028895405        1.87165024366113        0.00771998698955
8
 energy: -11.932414721731 gnorm: 0.003483940350 xtb: 6.7.1 (edcfbbe)
C            0.67419579660220       -2.16008740944696       -0.17909994407899
C            1.11734712393425       -0.94291663203856        0.41562560054364
C            1.60352965791217        1.33090144649126       -0.14667467421269
O            1.38237388947968        0.18631936178971        0.15224467975688
H            1.13155486011547       -3.03095475988372        0.29099344789148
H           -0.41589708511584       -2.26239475218934       -0.10723054477543
H            0.92080370807328       -2.12826822478562       -1.25392671845586
H            2.52080735899879        1.87174385006326        0.00814296333086
8
 energy: -11.932439101278 gnorm: 0.002655223267 xtb: 6.7.1 (edcfbbe)
C            0.67567252454329       -2.15895188724102       -0.18175133596869
C            1.12118187325157       -0.94477998254872        0.42075579428423
C            1.60520511551220        1.32800115888444       -0.14983094071268
O            1.38214280335615        0.18510062888940        0.15229114019333
H            1.14033856964204       -3.03179038041921        0.27896485452170
H           -0.41322438688682       -2.26654370730660       -0.09020662445763
H            0.90277789452556       -2.12006694694810       -1.25921694249295
H            2.52062091605602        1.87337399668984        0.00906886463257
8
 energy: -11.932449576168 gnorm: 0.001880481442 xtb: 6.7.1 (edcfbbe)
C            0.67635644026886       -2.15851024904076       -0.18280296094313
C            1.11606431648563       -0.94325553234405        0.42207984802390
C            1.60666265917442        1.32733059830522       -0.15104380323786
O            1.38259096678152        0.18483082443706        0.15078435825271
H            1.14336317724853       -3.03041246901570        0.27642966911595
H           -0.41085873772809       -2.27060670119538       -0.08647572191715
H            0.89867548405258       -2.11694864060459       -1.25929660204351
H            2.52186100371656        1.87191504945822        0.01040002274899
8
 energy: -11.932455416774 gnorm: 0.001237123691 xtb: 6.7.1 (edcfbbe)
C            0.67619878195224       -2.15865725625531       -0.18320816135652
C            1.11687269315124       -0.94426972191690        0.42398868757368
C            1.60717954129926        1.32624119774746       -0.15072438932751
O            1.38621614937974        0.18343337638881        0.15008552740794
H            1.14790243534385       -3.03106114767951        0.27115804395053
H           -0.41052278510757       -2.27202154936517       -0.07895416744450
H            0.89021762443636       -2.11367527101194       -1.26220955462867
H            2.52065086954489        1.87435325209258        0.00993882382494
8
 energy: -11.932457949481 gnorm: 0.000731024091 xtb: 6.7.1 (edcfbbe)
C            0.67572785387699       -2.15879388071228       -0.18274169288012
C            1.11766128621075       -0.94492415085840        0.42402855641618
C            1.60752020359559        1.32582550927026       -0.14973305957779
O            1.38813221048477        0.18257673358622        0.15038480985360
H            1.14733874377083       -3.03139250555255        0.27025471242366
H           -0.41085656541841       -2.27146593290123       -0.07901748479942
H            0.89001734373962       -2.11356777583312       -1.26177763325935
H            2.51917423373987        1.87608488300111        0.00867660182313
