 Entering Gaussian System
 *********************************************
 Gaussian 98:
 frequency output generated by the xtb code
 *********************************************
                         Standard orientation:
 --------------------------------------------------------------------
  Center     Atomic     Atomic              Coordinates (Angstroms)
  Number     Number      Type              X           Y           Z
 --------------------------------------------------------------------
    1          6             0        1.113765   -3.283914   -0.042373
    2          6             0        0.677673   -1.879479    0.025412
    3          8             0        1.142351   -0.828782   -0.174324
    4          1             0        2.162733   -3.298893   -0.371325
    5          1             0        1.017830   -3.772841    0.933127
    6          1             0        0.491783   -3.854565   -0.740547
    7          1             0       -0.414809   -1.933843    0.374346
 --------------------------------------------------------------------
     1 basis functions        1 primitive gaussians
     1 alpha electrons        1 beta electrons

 Harmonic frequencies (cm**-1), IR intensities (km*mol⁻¹),
 Raman scattering activities (A**4/amu), Raman depolarization ratios,
 reduced masses (AMU), force constants (mDyne/A) and normal coordinates:
                      1                      2                      3
                        a                      a                      a 
 Frequencies --    70.1846               459.6361               716.6118
 Red. masses --     3.4697                10.7596                 4.0656
 Frc consts  --     0.0000                 0.0000                 0.0000
 IR Inten    --     4.1726                28.1513                49.3454
 Raman Activ --     0.0000                 0.0000                 0.0000
 Depolar     --     0.0000                 0.0000                 0.0000
 Atom AN      X      Y      Z        X      Y      Z        X      Y      Z
   1   6     0.01   0.00   0.02     0.15   0.27  -0.06     0.02   0.00   0.07
   2   6    -0.10  -0.02  -0.31    -0.59   0.08   0.18     0.14   0.02   0.45
   3   8     0.09   0.01   0.28     0.33  -0.42  -0.08    -0.06  -0.01  -0.19
   4   1    -0.11  -0.02  -0.35     0.04   0.37  -0.03    -0.06  -0.01  -0.18
   5   1     0.38   0.28   0.19     0.15   0.00  -0.05     0.09  -0.28  -0.12
   6   1    -0.19  -0.25   0.40     0.15   0.00  -0.05    -0.15   0.27  -0.07
   7   1    -0.12  -0.02  -0.37    -0.14   0.10   0.04    -0.21  -0.03  -0.67
                      4                      5                      6
                        a                      a                      a 
 Frequencies --   915.9641               945.1844               997.5889
 Red. masses --     9.4070                 5.5450                 5.4806
 Frc consts  --     0.0000                 0.0000                 0.0000
 IR Inten    --    16.5364                10.2588                19.9966
 Raman Activ --     0.0000                 0.0000                 0.0000
 Depolar     --     0.0000                 0.0000                 0.0000
 Atom AN      X      Y      Z        X      Y      Z        X      Y      Z
   1   6     0.05   0.64  -0.05    -0.12  -0.02  -0.38    -0.35   0.16   0.10
   2   6     0.18  -0.36  -0.04     0.15   0.02   0.46     0.37  -0.29  -0.10
   3   8    -0.11  -0.34   0.05    -0.04  -0.01  -0.11    -0.11  -0.04   0.04
   4   1     0.01  -0.20   0.01     0.05   0.01   0.15    -0.08   0.52  -0.00
   5   1    -0.21   0.27   0.02    -0.17   0.47   0.13     0.23  -0.16  -0.04
   6   1    -0.19   0.28   0.08     0.23  -0.46   0.05     0.22  -0.15  -0.08
   7   1     0.01   0.03  -0.00    -0.06  -0.01  -0.18     0.03   0.40  -0.03
                      7                      8                      9
                        a                      a                      a 
 Frequencies --  1045.4746              1248.7505              1283.4534
 Red. masses --     2.7833                 1.7713                 2.6113
 Frc consts  --     0.0000                 0.0000                 0.0000
 IR Inten    --    79.1923                78.5194               154.0027
 Raman Activ --     0.0000                 0.0000                 0.0000
 Depolar     --     0.0000                 0.0000                 0.0000
 Atom AN      X      Y      Z        X      Y      Z        X      Y      Z
   1   6     0.29  -0.19  -0.08    -0.08  -0.01  -0.25    -0.04   0.37  -0.01
   2   6    -0.13  -0.05   0.04     0.00   0.00   0.01    -0.05   0.00   0.02
   3   8    -0.09   0.05   0.03    -0.00  -0.00  -0.00     0.04   0.04  -0.01
   4   1     0.07  -0.24  -0.01     0.22   0.04   0.69    -0.01  -0.41   0.02
   5   1    -0.10   0.00  -0.01     0.44  -0.08  -0.03     0.01  -0.51  -0.29
   6   1    -0.08   0.00   0.07    -0.38   0.09   0.22     0.18  -0.48   0.28
   7   1    -0.09   0.87  -0.02    -0.01  -0.00  -0.02    -0.02  -0.03   0.01
                     10                     11                     12
                        a                      a                      a 
 Frequencies --  1330.4857              1898.0295              2317.6736
 Red. masses --     1.5560                13.4710                 1.6025
 Frc consts  --     0.0000                 0.0000                 0.0000
 IR Inten    --    36.2926               234.6764               111.1397
 Raman Activ --     0.0000                 0.0000                 0.0000
 Depolar     --     0.0000                 0.0000                 0.0000
 Atom AN      X      Y      Z        X      Y      Z        X      Y      Z
   1   6     0.19  -0.07  -0.06    -0.02   0.04   0.00    -0.02   0.03   0.01
   2   6     0.05  -0.02  -0.01    -0.28  -0.69   0.12    -0.21  -0.02   0.07
   3   8     0.00   0.04  -0.00     0.27   0.57  -0.11    -0.03  -0.02   0.01
   4   1     0.02   0.52  -0.03     0.01   0.01  -0.00    -0.01  -0.01   0.00
   5   1    -0.54  -0.17  -0.14     0.00   0.04   0.03     0.01  -0.00   0.01
   6   1    -0.36  -0.14   0.43    -0.02   0.03  -0.03     0.00  -0.00  -0.01
   7   1     0.04  -0.06  -0.01    -0.06  -0.08   0.02     0.92   0.07  -0.30
                     13                     14                     15
                        a                      a                      a 
 Frequencies --  2908.0056              2951.0264              2975.8076
 Red. masses --     1.6890                 1.9488                 1.5849
 Frc consts  --     0.0000                 0.0000                 0.0000
 IR Inten    --   132.1058                62.5739                65.2689
 Raman Activ --     0.0000                 0.0000                 0.0000
 Depolar     --     0.0000                 0.0000                 0.0000
 Atom AN      X      Y      Z        X      Y      Z        X      Y      Z
   1   6     0.24  -0.01  -0.07    -0.09  -0.02  -0.28     0.13   0.17  -0.05
   2   6     0.01  -0.01  -0.00    -0.00  -0.00  -0.00     0.01   0.02  -0.00
   3   8     0.00   0.01  -0.00    -0.00   0.00  -0.00    -0.00  -0.01   0.00
   4   1    -0.92   0.01   0.29    -0.01  -0.00  -0.03    -0.04   0.01   0.01
   5   1     0.03   0.02  -0.05    -0.07  -0.31   0.59    -0.05  -0.30   0.63
   6   1     0.05   0.03   0.02     0.39   0.37   0.42    -0.38  -0.34  -0.45
   7   1    -0.00  -0.00   0.00     0.00   0.00   0.00    -0.01   0.00   0.00
