      -----------------------------------------------------------      
     |                   =====================                   |     
     |                           x T B                           |     
     |                   =====================                   |     
     |                         S. Grimme                         |     
     |          Mulliken Center for Theoretical Chemistry        |     
     |                    University of Bonn                     |     
      -----------------------------------------------------------      

   * xtb version 6.7.1 (edcfbbe) compiled by 'conda@afd1a870197c' on 2025-04-11

   xtb is free software: you can redistribute it and/or modify it under
   the terms of the GNU Lesser General Public License as published by
   the Free Software Foundation, either version 3 of the License, or
   (at your option) any later version.
   
   xtb is distributed in the hope that it will be useful,
   but WITHOUT ANY WARRANTY; without even the implied warranty of
   MERCHANTABILITY or FITNESS FOR A PARTICULAR PURPOSE.  See the
   GNU Lesser General Public License for more details.
   
   Cite this work as:
   * C. Bannwarth, E. Caldeweyher, S. Ehlert, A. Hansen, P. Pracht,
     J. Seibert, S. Spicher, S. Grimme, WIREs Comput. Mol. Sci., 2020, 11,
     e01493. DOI: 10.1002/wcms.1493
   
   for GFN2-xTB:
   * C. Bannwarth, S. Ehlert and S. Grimme., J. Chem. Theory Comput., 2019,
     15, 1652-1671. DOI: 10.1021/acs.jctc.8b01176
   for GFN1-xTB:
   * S. Grimme, C. Bannwarth, P. Shushkov, J. Chem. Theory Comput., 2017,
     13, 1989-2009. DOI: 10.1021/acs.jctc.7b00118
   for GFN0-xTB:
   * P. Pracht, E. Caldeweyher, S. Ehlert, S. Grimme, ChemRxiv, 2019, preprint.
     DOI: 10.26434/chemrxiv.8326202.v1
   for GFN-FF:
   * S. Spicher and S. Grimme, Angew. Chem. Int. Ed., 2020, 59, 15665-15673.
     DOI: 10.1002/anie.202004239
   
   for ALPB and GBSA implicit solvation:
   * S. Ehlert, M. Stahn, S. Spicher, S. Grimme, J. Chem. Theory Comput.,
     2021, 17, 4250-4261. DOI: 10.1021/acs.jctc.1c00471
   
   for ddCOSMO and CPCM-X implicit solvation:
   * M. Stahn, S. Ehlert, S. Grimme, J. Phys. Chem. A,
     2023, XX, XXXX-XXXX. DOI: 10.1021/acs.jpca.3c04382
   
   for DFT-D4:
   * E. Caldeweyher, C. Bannwarth and S. Grimme, J. Chem. Phys., 2017,
     147, 034112. DOI: 10.1063/1.4993215
   * E. Caldeweyher, S. Ehlert, A. Hansen, H. Neugebauer, S. Spicher,
     C. Bannwarth and S. Grimme, J. Chem. Phys., 2019, 150, 154122.
     DOI: 10.1063/1.5090222
   * E. Caldeweyher, J.-M. Mewes, S. Ehlert and S. Grimme, Phys. Chem. Chem. Phys.
     2020, 22, 8499-8512. DOI: 10.1039/D0CP00502A
   
   for sTDA-xTB:
   * S. Grimme and C. Bannwarth, J. Chem. Phys., 2016, 145, 054103.
     DOI: 10.1063/1.4959605
   
   in the mass-spec context:
   * V. Asgeirsson, C. Bauer and S. Grimme, Chem. Sci., 2017, 8, 4879.
     DOI: 10.1039/c7sc00601b
   * J. Koopman and S. Grimme, ACS Omega 2019, 4, 12, 15120-15133.
     DOI: 10.1021/acsomega.9b02011
   
   for metadynamics refer to:
   * S. Grimme, J. Chem. Theory Comput., 2019, 155, 2847-2862
     DOI: 10.1021/acs.jctc.9b00143
   
   for SPH calculations refer to:
   * S. Spicher and S. Grimme, J. Chem. Theory Comput., 2021, 17, 1701-1714
     DOI: 10.1021/acs.jctc.0c01306
   
   for ONIOM refer to:
   * C. Plett, A. Katbashev, S. Ehlert, S. Grimme, M. Bursch,
     Phys. Chem. Chem. Phys., 2023, 25, 17860-17868. DOI: 10.1039/D3CP02178E
   
   for DIPRO refer to:
   * J. Kohn, N. Gildemeister, S. Grimme, D. Fazzi, A. Hansen,
     J. Chem. Phys., 2023, just accepted.
   
   for PTB refer to:
   * S. Grimme, M. Mueller, A. Hansen, J. Chem. Phys., 2023, 158, 124111.
     DOI: 10.1063/5.0137838
   
   with help from (in alphabetical order)
   P. Atkinson, C. Bannwarth, F. Bohle, G. Brandenburg, E. Caldeweyher
   M. Checinski, S. Dohm, S. Ehlert, S. Ehrlich, I. Gerasimov, C. Hölzer
   A. Katbashev, J. Kohn, J. Koopman, C. Lavigne, S. Lehtola, F. März, M. Müller,
   F. Musil, H. Neugebauer, J. Pisarek, C. Plett, P. Pracht, F. Pultar,
   J. Seibert, P. Shushkov, S. Spicher, M. Stahn, M. Steiner, T. Strunk,
   J. Stückrath, T. Rose, and J. Unsleber
   
 * started run on 2025/06/07 at 21:26:37.861     
   ID    Z sym.   atoms
    1    6 C      1, 2
    2    8 O      3
    3    1 H      4-7

           -------------------------------------------------
          |                Calculation Setup                |
           -------------------------------------------------

          program call               : xtb xtbin.xyz --bhess --gfn2 --etemp 300
          coordinate file            : xtbin.xyz
          omp threads                :                     1


           -------------------------------------------------
          |                 G F N 2 - x T B                 |
           -------------------------------------------------

        Reference                      10.1021/acs.jctc.8b01176
      * Hamiltonian:
        H0-scaling (s, p, d)           1.850000    2.230000    2.230000
        zeta-weighting                 0.500000
      * Dispersion:
        s8                             2.700000
        a1                             0.520000
        a2                             5.000000
        s9                             5.000000
      * Repulsion:
        kExp                           1.500000    1.000000
        rExp                           1.000000
      * Coulomb:
        alpha                          2.000000
        third order                    shell-resolved
        anisotropic                    true
        a3                             3.000000
        a5                             4.000000
        cn-shift                       1.200000
        cn-exp                         4.000000
        max-rad                        5.000000


          ...................................................
          :                      SETUP                      :
          :.................................................:
          :  # basis functions                  16          :
          :  # atomic orbitals                  16          :
          :  # shells                           10          :
          :  # electrons                        17          :
          :  max. iterations                   250          :
          :  Hamiltonian                  GFN2-xTB          :
          :  restarted?                      false          :
          :  GBSA solvation                  false          :
          :  PC potential                    false          :
          :  electronic temp.          300.0000000     K    :
          :  accuracy                    1.0000000          :
          :  -> integral cutoff          0.2500000E+02      :
          :  -> integral neglect         0.1000000E-07      :
          :  -> SCF convergence          0.1000000E-05 Eh   :
          :  -> wf. convergence          0.1000000E-03 e    :
          :  Broyden damping             0.4000000          :
          :  net charge                          1          :
          :  unpaired electrons                  1          :
          ...................................................

 iter      E             dE          RMSdq      gap      omega  full diag
   1     -9.8914258 -0.989143E+01  0.459E+00    4.29       0.0  T
   2     -9.9190572 -0.276314E-01  0.285E+00    3.88       1.0  T
   3     -9.9201334 -0.107617E-02  0.123E+00    3.94       1.0  T
   4     -9.9210996 -0.966266E-03  0.280E-01    3.91       1.0  T
   5     -9.9213591 -0.259449E-03  0.101E-01    3.89       1.0  T
   6     -9.9213913 -0.322462E-04  0.444E-02    3.90       1.0  T
   7     -9.9213926 -0.126338E-05  0.284E-02    3.89       1.3  T
   8     -9.9213961 -0.354760E-05  0.533E-03    3.90       7.1  T
   9     -9.9213962 -0.345628E-07  0.122E-03    3.90      31.0  T
  10     -9.9213962 -0.508459E-08  0.332E-04    3.90     113.9  T
  11     -9.9213962 -0.455934E-09  0.464E-05    3.90     813.7  T

   *** convergence criteria satisfied after 11 iterations ***

         #    Occupation            Energy/Eh            Energy/eV
      -------------------------------------------------------------
         1        2.0000           -1.0321668             -28.0867
       ...           ...                  ...                  ...
         3        2.0000           -0.8906912             -24.2369
         4        2.0000           -0.8557479             -23.2861
         5        2.0000           -0.8435099             -22.9531
         6        2.0000           -0.7956137             -21.6498
         7        2.0000           -0.7410238             -20.1643
         8        2.0000           -0.7304631             -19.8769
         9        1.0000           -0.7007132             -19.0674 (HOMO)
        10                         -0.5575462             -15.1716 (LUMO)
        11                         -0.1910770              -5.1995
        12                         -0.0924364              -2.5153
        13                         -0.0547025              -1.4885
        14                         -0.0390256              -1.0619
       ...                                ...                  ...
        16                          0.3168051               8.6207
      -------------------------------------------------------------
                  HL-Gap            0.1431670 Eh            3.8958 eV
             Fermi-level           -0.6723589 Eh          -18.2958 eV

 SCC (total)                   0 d,  0 h,  0 min,  0.004 sec
 SCC setup                      ...        0 min,  0.000 sec (  2.811%)
 Dispersion                     ...        0 min,  0.000 sec (  0.984%)
 classical contributions        ...        0 min,  0.000 sec (  0.419%)
 integral evaluation            ...        0 min,  0.000 sec ( 11.560%)
 iterations                     ...        0 min,  0.002 sec ( 57.968%)
 molecular gradient             ...        0 min,  0.001 sec ( 22.912%)
 printout                       ...        0 min,  0.000 sec (  3.024%)

         :::::::::::::::::::::::::::::::::::::::::::::::::::::
         ::                     SUMMARY                     ::
         :::::::::::::::::::::::::::::::::::::::::::::::::::::
         :: total energy              -9.798211551413 Eh    ::
         :: gradient norm              0.075685467471 Eh/a0 ::
         :: HOMO-LUMO gap              3.895773400808 eV    ::
         ::.................................................::
         :: SCC energy                -9.921396016525 Eh    ::
         :: -> isotropic ES            0.136460704926 Eh    ::
         :: -> anisotropic ES         -0.013607627133 Eh    ::
         :: -> anisotropic XC          0.006184465758 Eh    ::
         :: -> dispersion             -0.001463418305 Eh    ::
         :: repulsion energy           0.123184465112 Eh    ::
         :: add. restraining           0.000000000000 Eh    ::
         :: total charge               1.000000000002 e     ::
         :::::::::::::::::::::::::::::::::::::::::::::::::::::

metadynamics with 1 initial structures loaded
           -------------------------------------------------
          |           Optimal kpush determination           |
           -------------------------------------------------
      ----------------------------------------------------------- 
     |                   =====================                   |
     |                        A N C O P T                        |
     |                   =====================                   |
     |               Approximate Normal Coordinate               |
     |                Rational Function Optimizer                |
      ----------------------------------------------------------- 
target rmsd / Å         0.100000
unbiased initial rmsd   0.091481

iter. min.        max.        rmsd       kpush
final kpush: -0.000000
           -------------------------------------------------
          |            Biased Numerical Hessian             |
           -------------------------------------------------
kpush                :  -0.00000
alpha                :   1.00000
step length          :   0.00500
SCC accuracy         :   0.30000
Hessian scale factor :   1.00000
frozen atoms in %    :   0.00000    0
RMS gradient         :   0.00041
estimated CPU  time      0.00 min
estimated wall time      0.00 min

writing file <hessian>.

 projected vibrational frequencies (cm⁻¹)
eigval :       -0.00    -0.00    -0.00     0.00     0.00     0.00
eigval :       70.18   459.64   716.61   915.96   945.18   997.59
eigval :     1045.47  1248.75  1283.45  1330.49  1898.03  2317.67
eigval :     2908.01  2951.03  2975.81
           -------------------------------------------------
          |                Property Printout                |
           -------------------------------------------------

    * Orbital Energies and Occupations

         #    Occupation            Energy/Eh            Energy/eV
      -------------------------------------------------------------
         1        2.0000           -1.0305118             -28.0417
         2        2.0000           -0.9289199             -25.2772
         3        2.0000           -0.8837274             -24.0474
         4        2.0000           -0.8550190             -23.2663
         5        2.0000           -0.8442657             -22.9736
         6        2.0000           -0.7945813             -21.6217
         7        2.0000           -0.7393491             -20.1187
         8        2.0000           -0.7359725             -20.0268
         9        1.0000           -0.6815322             -18.5454 (HOMO)
        10                         -0.5407861             -14.7155 (LUMO)
        11                         -0.1702757              -4.6334
        12                         -0.1244549              -3.3866
        13                         -0.0885663              -2.4100
        14                         -0.0444274              -1.2089
        15                         -0.0101082              -0.2751
        16                          0.4811292              13.0922
      -------------------------------------------------------------
                  HL-Gap            0.1407460 Eh            3.8299 eV
             Fermi-level           -0.6599488 Eh          -17.9581 eV

     #   Z          covCN         q      C6AA      α(0)
     1   6 C        3.749    -0.142    23.312     6.886
     2   6 C        2.746     0.255    22.713     7.804
     3   8 O        0.856     0.003    15.069     5.205
     4   1 H        0.923     0.214     1.033     1.589
     5   1 H        0.924     0.195     1.124     1.658
     6   1 H        0.924     0.195     1.123     1.657
     7   1 H        0.912     0.281     0.770     1.372

 Mol. C6AA /au·bohr⁶  :        304.069508
 Mol. C8AA /au·bohr⁸  :       6848.844943
 Mol. α(0) /au        :         26.170873


Wiberg/Mayer (AO) data.
largest (>0.10) Wiberg bond orders for each atom

 ---------------------------------------------------------------------------
     #   Z sym  total        # sym  WBO       # sym  WBO       # sym  WBO
 ---------------------------------------------------------------------------
     1   6 C    3.891 --     2 C    1.020     5 H    0.899     6 H    0.898
                             4 H    0.862     3 O    0.154
     2   6 C    3.892 --     3 O    2.105     1 C    1.020     7 H    0.696
     3   8 O    2.472 --     2 C    2.105     1 C    0.154
     4   1 H    0.950 --     1 C    0.862
     5   1 H    0.962 --     1 C    0.899
     6   1 H    0.962 --     1 C    0.898
     7   1 H    0.864 --     2 C    0.696
 ---------------------------------------------------------------------------

Topologies differ in total number of bonds
Writing topology from bond orders to xtbtopo.mol

molecular dipole:
                 x           y           z       tot (Debye)
 q only:        1.243      -5.195       0.142
   full:        1.110      -5.237       0.186      13.615
molecular quadrupole (traceless):
                xx          xy          yy          xz          yz          zz
 q only:      -11.214     -11.913      27.223      -0.484      -0.550     -16.009
  q+dip:      -10.793     -11.238      26.553      -0.653      -0.738     -15.760
   full:      -10.969     -11.620      26.082      -0.339      -0.556     -15.114

           -------------------------------------------------
          |                Geometry Summary                 |
Refinement of some symmetry elements was terminated before convergence was reached.
Some symmetry elements may remain unidentified.
Molecule has the following symmetry elements: (sigma) 
It seems to be the Cs point group
           -------------------------------------------------

      molecular mass/u    :       44.0526397
   center of mass at/Å    :        0.9778490      -2.0030224      -0.0634610
  moments of inertia/u·Å² :        0.7279742E+01   0.5193014E+02   0.5610079E+02
rotational constants/cm⁻¹ :        0.2315691E+01   0.3246214E+00   0.3004883E+00

 * 5 selected distances

     #   Z          #   Z                                           value/Å
     1   6 C        2   6 C                                       1.4721446 (max)
     2   6 C        3   8 O                                       1.1660980
     1   6 C        4   1 H                                       1.0994397
     1   6 C        5   1 H                                       1.0953780 (min)
     1   6 C        6   1 H                                       1.0954225

 * 3 distinct bonds (by element types)

   Z      Z             #   av. dist./Å        max./Å        min./Å
   1 H    6 C           3     1.0967467     1.0994397     1.0953780
   6 C    6 C           1     1.4721446     1.4721446     1.4721446
   6 C    8 O           1     1.1660980     1.1660980     1.1660980

           -------------------------------------------------
          |               Frequency Printout                |
           -------------------------------------------------
 projected vibrational frequencies (cm⁻¹)
eigval :       -0.00    -0.00    -0.00     0.00     0.00     0.00
eigval :       70.18   459.64   716.61   915.96   945.18   997.59
eigval :     1045.47  1248.75  1283.45  1330.49  1898.03  2317.67
eigval :     2908.01  2951.03  2975.81
 reduced masses (amu)
   1:  3.98   2:  9.56   3: 13.17   4: 13.78   5: 12.58   6: 11.35   7:  3.47   8: 10.76
   9:  4.07  10:  9.41  11:  5.54  12:  5.48  13:  2.78  14:  1.77  15:  2.61  16:  1.56
  17: 13.47  18:  1.60  19:  1.69  20:  1.95  21:  1.58
 IR intensities (km·mol⁻¹)
   1: 24.45   2: 27.94   3: 13.49   4:  7.82   5: 15.83   6: 24.57   7:  4.17   8: 28.15
   9: 49.35  10: 16.54  11: 10.26  12: 20.00  13: 79.19  14: 78.52  15:154.00  16: 36.29
  17:234.68  18:111.14  19:132.11  20: 62.57  21: 65.27
 Raman intensities (Ä⁴*amu⁻¹)
   1:  0.00   2:  0.00   3:  0.00   4:  0.00   5:  0.00   6:  0.00   7:  0.00   8:  0.00
   9:  0.00  10:  0.00  11:  0.00  12:  0.00  13:  0.00  14:  0.00  15:  0.00  16:  0.00
  17:  0.00  18:  0.00  19:  0.00  20:  0.00  21:  0.00
 output can be read by thermo (or use thermo option).
 writing <g98.out> molden fake output.
 recommended (thermochemical) frequency scaling factor: 1.0
           -------------------------------------------------
          |             Thermodynamic Functions             |
           -------------------------------------------------

cs  symmetry found (for desy threshold:  0.10E+00) used in thermo

          ...................................................
          :                      SETUP                      :
          :.................................................:
          :  # frequencies                          15      :
          :  # imaginary freq.                       0      :
          :  linear?                             false      :
          :  only rotor calc.                    false      :
          :  symmetry                               cs      :
          :  rotational number                       1      :
          :  scaling factor                  1.0000000      :
          :  rotor cutoff                   50.0000000 cm⁻¹ :
          :  imag. cutoff                  -20.0000000 cm⁻¹ :
          :.................................................:

    mode    ω/cm⁻¹     T·S(HO)/kcal·mol⁻¹    T·S(FR)/kcal·mol⁻¹   T·S(vib)
   ------------------------------------------------------------------------
       1     70.18    -1.23678 ( 79.52%)    -0.95425 ( 20.48%)    -1.17891
   ------------------------------------------------------------------------

   temp. (K)  partition function   enthalpy   heat capacity  entropy
                                   cal/mol     cal/K/mol   cal/K/mol   J/K/mol
 298.15  VIB   4.21                  851.093      6.023      5.518
         ROT  0.111E+05              888.752      2.981     21.496
         INT  0.469E+05             1739.846      9.004     27.014
         TR   0.283E+27             1481.254      4.968     37.257
         TOT                        3221.0995    13.9719    64.2716   268.9123

       T/K    H(0)-H(T)+PV         H(T)/Eh          T*S/Eh         G(T)/Eh
   ------------------------------------------------------------------------
    298.15    0.513315E-02    0.553984E-01    0.305375E-01    0.248609E-01
   ------------------------------------------------------------------------

         :::::::::::::::::::::::::::::::::::::::::::::::::::::
         ::                  THERMODYNAMIC                  ::
         :::::::::::::::::::::::::::::::::::::::::::::::::::::
         :: total free energy          -9.781345862987 Eh   ::
         ::.................................................::
         :: total energy               -9.806206716909 Eh   ::
         :: zero point energy           0.050265210050 Eh   ::
         :: G(RRHO) w/o ZPVE           -0.025404356127 Eh   ::
         :: G(RRHO) contrib.            0.024860853923 Eh   ::
         :::::::::::::::::::::::::::::::::::::::::::::::::::::

optimized geometry written to: xtbopt.xyz


           -------------------------------------------------
          | TOTAL ENERGY               -9.806206716909 Eh   |
          | TOTAL ENTHALPY             -9.750808357998 Eh   |
          | TOTAL FREE ENERGY          -9.781345862987 Eh   |
          | GRADIENT NORM               0.000410972927 Eh/α |
          | HOMO-LUMO GAP               3.829894622431 eV   |
           -------------------------------------------------

------------------------------------------------------------------------
 * finished run on 2025/06/07 at 21:26:37.982     
------------------------------------------------------------------------
 total:
 * wall-time:     0 d,  0 h,  0 min,  0.121 sec
 *  cpu-time:     0 d,  0 h,  0 min,  0.121 sec
 * ratio c/w:     1.000 speedup
 SCF:
 * wall-time:     0 d,  0 h,  0 min,  0.004 sec
 *  cpu-time:     0 d,  0 h,  0 min,  0.004 sec
 * ratio c/w:     0.995 speedup
 analytical hessian:
 * wall-time:     0 d,  0 h,  0 min,  0.085 sec
 *  cpu-time:     0 d,  0 h,  0 min,  0.085 sec
 * ratio c/w:     1.000 speedup

