7
 energy: -9.798211551418 gnorm: 0.075686155314 xtb: 6.7.1 (edcfbbe)
C            1.15663173627917       -3.30424799781894       -0.05462958643321
C            0.57534904256069       -1.94088892243187        0.06089807751325
O            1.17892515184898       -0.93560592729572       -0.18077442248654
H            2.18978166173126       -3.26803387656784       -0.38145333702750
H            1.04867283202176       -3.76500042337344        0.92985776230734
H            0.51854018257922       -3.84642309322122       -0.75624956687880
H           -0.47647563702107       -1.79208198929096        0.38665744300547
7
 energy: -9.802727576354 gnorm: 0.041197637248 xtb: 6.7.1 (edcfbbe)
C            1.13871325793416       -3.29920626948065       -0.04930090180757
C            0.60722220484723       -1.91511211186288        0.04970304132409
O            1.17619189106917       -0.90776341528936       -0.18133298826674
H            2.17675587367356       -3.25481975666926       -0.37795861805076
H            1.03970597576943       -3.78366913756843        0.92886187025146
H            0.51232258650399       -3.86488893286395       -0.74870066090443
H           -0.45948681979753       -1.82682260626546        0.38303462745397
7
 energy: -9.805902672568 gnorm: 0.011181299262 xtb: 6.7.1 (edcfbbe)
C            1.10872276731813       -3.28880553790769       -0.04055321430820
C            0.67411014663439       -1.87108056722915        0.02589889546752
O            1.16153211493832       -0.83484062423653       -0.18019307620268
H            2.15686131812858       -3.26446732439704       -0.37100732865494
H            1.01832452215048       -3.79590024381306        0.92822298637308
H            0.49588565399236       -3.87716852348827       -0.73503014842392
H           -0.42401155316225       -1.92001940892825        0.37696825574915
7
 energy: -9.806135313896 gnorm: 0.004982717563 xtb: 6.7.1 (edcfbbe)
C            1.11296463375135       -3.28686400738040       -0.04189839614104
C            0.67275282634185       -1.87699840336344        0.02733069890111
O            1.15480819824228       -0.83628681436355       -0.17809845910019
H            2.16154018943187       -3.28223084813175       -0.37181865043528
H            1.01847386297417       -3.78072912157363        0.93138579250897
H            0.49335460572838       -3.86189919733626       -0.73875323975689
H           -0.42246934646989       -1.92727383785095        0.37615862402333
7
 energy: -9.806196345650 gnorm: 0.001895526699 xtb: 6.7.1 (edcfbbe)
C            1.11376022901979       -3.28429520971794       -0.04244603694979
C            0.67561239118703       -1.87873162582849        0.02522858325078
O            1.14682735836564       -0.83106698232219       -0.17562033856528
H            2.16314840891055       -3.29726551881435       -0.37123142517795
H            1.01735369511705       -3.77100360219639        0.93352244795427
H            0.49169215401322       -3.85319820018066       -0.74116982334342
H           -0.41696926661326       -1.93672109093996        0.37602296283141
7
 energy: -9.806202292409 gnorm: 0.001248510597 xtb: 6.7.1 (edcfbbe)
C            1.11365781805797       -3.28345497411513       -0.04201717862733
C            0.67796485485374       -1.87894830224030        0.02786276199874
O            1.14281764490759       -0.82900936419438       -0.17491626915100
H            2.16240099643286       -3.30061483471846       -0.37180564493089
H            1.01895013317335       -3.77169217041367        0.93370071048448
H            0.49084401514526       -3.85183614656630       -0.74084060356569
H           -0.41521049257076       -1.93672643775175        0.37232259379170
7
 energy: -9.806203633723 gnorm: 0.001239798780 xtb: 6.7.1 (edcfbbe)
C            1.11344609382606       -3.28339397804770       -0.04255578818886
C            0.67738725793060       -1.87949668852482        0.02338837716554
O            1.14097945625538       -0.82800433189011       -0.17361143599242
H            2.16249655902360       -3.30069255399369       -0.37055592375459
H            1.01742490337484       -3.77161665343347        0.93333114192620
H            0.49256506471971       -3.85464425105882       -0.74137881832209
H           -0.41287436513019       -1.93443377305138        0.37568881716623
7
 energy: -9.806206716844 gnorm: 0.000412073337 xtb: 6.7.1 (edcfbbe)
C            1.11378261894245       -3.28390814373875       -0.04237452191174
C            0.67768309406112       -1.87947532981373        0.02541150630749
O            1.14235538882742       -0.82877518935694       -0.17432102023077
H            2.16275170466384       -3.29888035609670       -0.37132291880914
H            1.01784612406870       -3.77283663626472        0.93312428454357
H            0.49180613621317       -3.85456061031557       -0.74055162435212
H           -0.41480009677669       -1.93384596441359        0.37434066445273
