 Entering Gaussian System
 *********************************************
 Gaussian 98:
 frequency output generated by the xtb code
 *********************************************
                         Standard orientation:
 --------------------------------------------------------------------
  Center     Atomic     Atomic              Coordinates (Angstroms)
  Number     Number      Type              X           Y           Z
 --------------------------------------------------------------------
    1          6             0       -0.781453   -0.991022    0.000316
    2          6             0        0.769822   -1.000307    0.020099
    3          6             0        0.006645    1.135342    0.032971
    4          8             0        1.119630    0.368549    0.004543
    5          8             0       -1.115234    0.381181    0.045025
    6          1             0       -0.003549    1.854538   -0.829079
    7          1             0       -1.242071   -1.490136    0.861136
    8          1             0       -1.216861   -1.423738   -0.909696
    9          1             0        1.224680   -1.486327   -0.851210
   10          1             0        1.200020   -1.457352    0.920650
   11          1             0        0.025118    1.835606    0.910342
 --------------------------------------------------------------------
     1 basis functions        1 primitive gaussians
     1 alpha electrons        1 beta electrons

 Harmonic frequencies (cm**-1), IR intensities (km*mol⁻¹),
 Raman scattering activities (A**4/amu), Raman depolarization ratios,
 reduced masses (AMU), force constants (mDyne/A) and normal coordinates:
                      1                      2                      3
                        a                      a                      a 
 Frequencies --   104.1445               237.7108               714.8848
 Red. masses --     8.3370                 8.5560                12.6139
 Frc consts  --     0.0000                 0.0000                 0.0000
 IR Inten    --     0.0089                85.2271                54.2618
 Raman Activ --     0.0000                 0.0000                 0.0000
 Depolar     --     0.0000                 0.0000                 0.0000
 Atom AN      X      Y      Z        X      Y      Z        X      Y      Z
   1   6    -0.01  -0.01   0.35    -0.00   0.00  -0.15    -0.38  -0.26  -0.02
   2   6     0.01  -0.00  -0.35    -0.00  -0.00  -0.15    -0.37   0.27  -0.02
   3   6    -0.00   0.00   0.00    -0.01   0.00  -0.38     0.18  -0.00   0.01
   4   8     0.01   0.00   0.39     0.01  -0.00   0.43     0.33   0.33   0.01
   5   8    -0.01   0.01  -0.39     0.01  -0.01   0.43     0.33  -0.34   0.00
   6   1     0.07   0.00  -0.00    -0.01  -0.26  -0.34    -0.08  -0.01  -0.00
   7   1     0.12   0.16   0.26    -0.01  -0.09  -0.10    -0.09  -0.05   0.02
   8   1    -0.13  -0.17   0.25     0.01   0.10  -0.10    -0.16  -0.09   0.02
   9   1    -0.12   0.16  -0.26    -0.01   0.09  -0.10    -0.09   0.05   0.02
  10   1     0.13  -0.17  -0.25     0.01  -0.10  -0.10    -0.16   0.09   0.02
  11   1    -0.07   0.00   0.00    -0.00   0.27  -0.34    -0.08   0.01  -0.00
                      4                      5                      6
                        a                      a                      a 
 Frequencies --   780.9729               800.3432               862.8587
 Red. masses --    13.7849                 3.3745                 5.4548
 Frc consts  --     0.0000                 0.0000                 0.0000
 IR Inten    --    11.6512                 4.0913                 6.0402
 Raman Activ --     0.0000                 0.0000                 0.0000
 Depolar     --     0.0000                 0.0000                 0.0000
 Atom AN      X      Y      Z        X      Y      Z        X      Y      Z
   1   6    -0.15   0.26   0.01    -0.03  -0.00   0.19     0.02  -0.01  -0.12
   2   6     0.15   0.25  -0.00    -0.03   0.00   0.19     0.02   0.01  -0.12
   3   6    -0.00  -0.47  -0.01     0.01   0.00  -0.35    -0.01   0.01  -0.50
   4   8     0.53   0.01  -0.00     0.03   0.04   0.04    -0.02  -0.03   0.21
   5   8    -0.53   0.02   0.00     0.03  -0.04   0.04    -0.02   0.03   0.21
   6   1    -0.00  -0.14   0.00    -0.01   0.27   0.16     0.02   0.36   0.20
   7   1     0.02  -0.00  -0.01    -0.32  -0.13  -0.19     0.24   0.04   0.12
   8   1     0.01   0.01   0.00     0.30   0.14  -0.17    -0.23  -0.06   0.11
   9   1    -0.02  -0.00   0.01    -0.32   0.13  -0.19     0.24  -0.05   0.12
  10   1    -0.01   0.01  -0.00     0.30  -0.14  -0.18    -0.23   0.06   0.11
  11   1    -0.00  -0.14  -0.00    -0.02  -0.27   0.15     0.02  -0.37   0.20
                      7                      8                      9
                        a                      a                      a 
 Frequencies --   902.9082               968.9822               976.9228
 Red. masses --     9.7988                11.0661                 1.4315
 Frc consts  --     0.0000                 0.0000                 0.0000
 IR Inten    --   485.8341                 4.8389                 0.0013
 Raman Activ --     0.0000                 0.0000                 0.0000
 Depolar     --     0.0000                 0.0000                 0.0000
 Atom AN      X      Y      Z        X      Y      Z        X      Y      Z
   1   6     0.05   0.50  -0.00     0.43   0.37   0.01    -0.03  -0.01   0.04
   2   6     0.05  -0.50  -0.01    -0.42   0.38  -0.00     0.03  -0.01  -0.04
   3   6    -0.15   0.00  -0.01    -0.00  -0.19  -0.00     0.00   0.00   0.00
   4   8     0.13   0.28   0.00    -0.18  -0.24   0.00    -0.00   0.01  -0.11
   5   8     0.14  -0.28  -0.00     0.17  -0.24  -0.01     0.00   0.01   0.11
   6   1    -0.27   0.00   0.00     0.04  -0.07  -0.01     0.69  -0.00  -0.01
   7   1    -0.07   0.16  -0.01     0.19   0.02  -0.00     0.00  -0.05  -0.01
   8   1    -0.12   0.13   0.05     0.17   0.03   0.01    -0.03   0.06  -0.01
   9   1    -0.07  -0.16  -0.02    -0.19   0.02   0.00    -0.01  -0.05   0.01
  10   1    -0.12  -0.13   0.04    -0.17   0.03  -0.01     0.03   0.06   0.01
  11   1    -0.26  -0.00   0.01    -0.03  -0.07   0.01    -0.69   0.00   0.01
                     10                     11                     12
                        a                      a                      a 
 Frequencies --  1002.9702              1056.9683              1085.3300
 Red. masses --    10.7980                 5.6948                13.2901
 Frc consts  --     0.0000                 0.0000                 0.0000
 IR Inten    --     0.0309                 0.0003                20.5209
 Raman Activ --     0.0000                 0.0000                 0.0000
 Depolar     --     0.0000                 0.0000                 0.0000
 Atom AN      X      Y      Z        X      Y      Z        X      Y      Z
   1   6    -0.39   0.27  -0.02    -0.02   0.01   0.42    -0.10   0.15  -0.00
   2   6     0.40   0.27   0.03     0.02   0.01  -0.42     0.11   0.15   0.00
   3   6    -0.00  -0.17  -0.00    -0.00  -0.01  -0.00     0.00   0.68   0.01
   4   8    -0.33  -0.20  -0.00    -0.03  -0.01   0.16     0.23  -0.40  -0.00
   5   8     0.33  -0.20  -0.00     0.03  -0.01  -0.16    -0.23  -0.40  -0.01
   6   1    -0.01  -0.08  -0.03    -0.06  -0.00  -0.00     0.00   0.05  -0.07
   7   1    -0.19   0.15   0.00    -0.11  -0.33  -0.15     0.03  -0.08  -0.02
   8   1    -0.18   0.09   0.01     0.09   0.36  -0.12    -0.00  -0.06   0.02
   9   1     0.19   0.15  -0.00     0.10  -0.34   0.14    -0.03  -0.08   0.02
  10   1     0.18   0.09  -0.01    -0.09   0.36   0.12     0.00  -0.06  -0.02
  11   1     0.01  -0.09   0.02     0.06  -0.00   0.00    -0.00   0.05   0.07
                     13                     14                     15
                        a                      a                      a 
 Frequencies --  1096.9875              1133.6048              1157.6298
 Red. masses --     2.3208                 2.0731                11.9283
 Frc consts  --     0.0000                 0.0000                 0.0000
 IR Inten    --     3.7397                 0.0000                54.8304
 Raman Activ --     0.0000                 0.0000                 0.0000
 Depolar     --     0.0000                 0.0000                 0.0000
 Atom AN      X      Y      Z        X      Y      Z        X      Y      Z
   1   6    -0.00   0.00   0.18     0.02   0.00   0.20    -0.06   0.21  -0.00
   2   6    -0.00  -0.01   0.18    -0.02   0.01  -0.20    -0.07  -0.20  -0.01
   3   6     0.04   0.00   0.01     0.00   0.02   0.00     0.63  -0.00  -0.01
   4   8    -0.01   0.00  -0.14     0.03  -0.02  -0.07    -0.31   0.30   0.01
   5   8    -0.01  -0.00  -0.14    -0.03  -0.02   0.07    -0.31  -0.29   0.01
   6   1    -0.01  -0.02  -0.01     0.04  -0.00  -0.00     0.16   0.00  -0.00
   7   1     0.25  -0.41  -0.06    -0.41   0.24  -0.03     0.09  -0.09  -0.02
   8   1    -0.24   0.39  -0.03     0.41  -0.23  -0.04     0.10  -0.12   0.02
   9   1     0.25   0.41  -0.06     0.42   0.24   0.04     0.09   0.09  -0.02
  10   1    -0.24  -0.39  -0.04    -0.42  -0.22   0.03     0.11   0.12   0.02
  11   1    -0.01   0.02  -0.01    -0.04  -0.00   0.00     0.16  -0.00  -0.00
                     16                     17                     18
                        a                      a                      a 
 Frequencies --  1167.9457              1263.6078              1267.4281
 Red. masses --     4.0569                 5.8425                 4.0109
 Frc consts  --     0.0000                 0.0000                 0.0000
 IR Inten    --     0.1991                 0.7592                17.4502
 Raman Activ --     0.0000                 0.0000                 0.0000
 Depolar     --     0.0000                 0.0000                 0.0000
 Atom AN      X      Y      Z        X      Y      Z        X      Y      Z
   1   6    -0.02  -0.05  -0.01     0.23  -0.23  -0.00     0.31  -0.11  -0.01
   2   6    -0.01   0.05  -0.01     0.26   0.23   0.00    -0.29  -0.09   0.00
   3   6     0.38  -0.00  -0.01     0.32  -0.01  -0.01     0.02   0.11   0.00
   4   8    -0.05  -0.21   0.01    -0.20   0.06   0.00     0.13  -0.05   0.00
   5   8    -0.05   0.21   0.01    -0.19  -0.05   0.00    -0.15  -0.06  -0.00
   6   1    -0.59   0.01   0.01    -0.03   0.01   0.01    -0.00  -0.19  -0.16
   7   1     0.08  -0.06   0.01    -0.29   0.22  -0.02    -0.26   0.29   0.00
   8   1     0.10  -0.08  -0.01    -0.29   0.22   0.03    -0.29   0.31   0.01
   9   1     0.08   0.05   0.01    -0.31  -0.24  -0.03     0.24   0.27  -0.00
  10   1     0.10   0.08  -0.01    -0.32  -0.24   0.03     0.27   0.29  -0.00
  11   1    -0.59   0.00   0.01    -0.03   0.01  -0.01    -0.00  -0.20   0.15
                     19                     20                     21
                        a                      a                      a 
 Frequencies --  1296.5578              1395.5907              1438.8287
 Red. masses --     2.1774                 1.8143                 1.9900
 Frc consts  --     0.0000                 0.0000                 0.0000
 IR Inten    --   204.0460               176.9897                63.1469
 Raman Activ --     0.0000                 0.0000                 0.0000
 Depolar     --     0.0000                 0.0000                 0.0000
 Atom AN      X      Y      Z        X      Y      Z        X      Y      Z
   1   6     0.07   0.01  -0.00     0.13   0.09   0.00    -0.16  -0.12  -0.01
   2   6    -0.07   0.01   0.00     0.13  -0.09   0.00     0.16  -0.12   0.00
   3   6    -0.01  -0.14  -0.00    -0.04   0.00  -0.00     0.00   0.06   0.00
   4   8     0.09  -0.14  -0.00     0.01  -0.09   0.00     0.01  -0.05   0.00
   5   8    -0.09  -0.14  -0.00     0.02   0.09   0.01    -0.02  -0.05  -0.00
   6   1     0.01   0.49   0.40    -0.00   0.00   0.00    -0.00  -0.04  -0.04
   7   1    -0.08   0.14   0.02    -0.22  -0.30  -0.30     0.26   0.26   0.30
   8   1    -0.09   0.14  -0.02    -0.22  -0.33   0.27     0.27   0.28  -0.27
   9   1     0.08   0.14  -0.02    -0.22   0.31  -0.29    -0.26   0.27  -0.30
  10   1     0.09   0.14   0.02    -0.22   0.33   0.28    -0.27   0.28   0.28
  11   1    -0.00   0.50  -0.39    -0.00   0.00  -0.00     0.00  -0.04   0.04
                     22                     23                     24
                        a                      a                      a 
 Frequencies --  2578.8485              2683.6504              2906.7185
 Red. masses --     1.8187                 1.5006                 1.9504
 Frc consts  --     0.0000                 0.0000                 0.0000
 IR Inten    --    88.5120               126.1843                 1.4523
 Raman Activ --     0.0000                 0.0000                 0.0000
 Depolar     --     0.0000                 0.0000                 0.0000
 Atom AN      X      Y      Z        X      Y      Z        X      Y      Z
   1   6     0.00  -0.00   0.00     0.00  -0.00   0.00    -0.02  -0.01  -0.21
   2   6     0.00   0.00   0.00    -0.00  -0.00  -0.00     0.02  -0.02   0.21
   3   6     0.01  -0.00   0.27     0.00   0.21   0.00     0.00   0.00   0.00
   4   8    -0.00  -0.00   0.00    -0.02   0.02   0.00     0.00  -0.00   0.00
   5   8    -0.00  -0.00   0.00     0.02   0.02   0.00    -0.00  -0.00  -0.00
   6   1    -0.01   0.46  -0.50     0.01  -0.41   0.56     0.00  -0.00   0.00
   7   1     0.00  -0.00   0.00    -0.00  -0.01   0.01    -0.16  -0.17   0.27
   8   1    -0.00   0.00   0.00    -0.00  -0.01  -0.01     0.23   0.23   0.47
   9   1     0.00   0.00   0.00     0.00  -0.01  -0.01     0.16  -0.17  -0.27
  10   1    -0.00  -0.00   0.00     0.00  -0.01   0.01    -0.23   0.24  -0.47
  11   1    -0.01  -0.45  -0.51    -0.01  -0.40  -0.56    -0.00  -0.00  -0.00
                     25                     26                     27
                        a                      a                      a 
 Frequencies --  2915.5834              2933.9576              2941.1191
 Red. masses --     1.9344                 1.5788                 1.5273
 Frc consts  --     0.0000                 0.0000                 0.0000
 IR Inten    --    37.1558               116.9212                38.8099
 Raman Activ --     0.0000                 0.0000                 0.0000
 Depolar     --     0.0000                 0.0000                 0.0000
 Atom AN      X      Y      Z        X      Y      Z        X      Y      Z
   1   6     0.04   0.03   0.20    -0.10  -0.09   0.08     0.11   0.10  -0.04
   2   6     0.04  -0.04   0.20    -0.10   0.09   0.09    -0.10   0.10   0.04
   3   6    -0.00  -0.00   0.00     0.00   0.00   0.00    -0.00  -0.01  -0.00
   4   8    -0.00  -0.01   0.00     0.00   0.02   0.00    -0.00   0.01  -0.00
   5   8    -0.00   0.01   0.00     0.00  -0.02  -0.00     0.00   0.01   0.00
   6   1     0.00  -0.00  -0.00    -0.00  -0.00   0.00     0.00   0.01  -0.01
   7   1     0.11   0.12  -0.17     0.25   0.29  -0.51    -0.23  -0.26   0.47
   8   1    -0.25  -0.26  -0.53     0.08   0.09   0.22    -0.13  -0.14  -0.32
   9   1     0.11  -0.12  -0.17     0.25  -0.28  -0.52     0.23  -0.25  -0.47
  10   1    -0.24   0.27  -0.52     0.08  -0.09   0.22     0.13  -0.14   0.32
  11   1     0.00   0.00  -0.00    -0.00   0.00  -0.00    -0.00   0.01   0.01
