
                                 *****************
                                 * O   R   C   A *
                                 *****************

                                            #,                                       
                                            ###                                      
                                            ####                                     
                                            #####                                    
                                            ######                                   
                                           ########,                                 
                                     ,,################,,,,,                         
                               ,,#################################,,                 
                          ,,##########################################,,             
                       ,#########################################, ''#####,          
                    ,#############################################,,   '####,        
                  ,##################################################,,,,####,       
                ,###########''''           ''''###############################       
              ,#####''   ,,,,##########,,,,          '''####'''          '####       
            ,##' ,,,,###########################,,,                        '##       
           ' ,,###''''                  '''############,,,                           
         ,,##''                                '''############,,,,        ,,,,,,###''
      ,#''                                            '''#######################'''  
     '                                                          ''''####''''         
             ,#######,   #######,   ,#######,      ##                                
            ,#'     '#,  ##    ##  ,#'     '#,    #''#        ,####,   ,####,        
            ##       ##  ##   ,#'  ##            #'  '#       #'       #'  '#        
            ##       ##  #######   ##           ,######,      #####,   #    #        
            '#,     ,#'  ##    ##  '#,     ,#' ,#      #,     #,   #   #,  ,#        
             '#######'   ##     ##  '#######'  #'      '#     '####' # '####'        



                #########################################################
                #                        -***-                          #
                #          Department of theory and spectroscopy        #
                #                                                       #
                #                      Frank Neese                      #
                #                                                       #
                #     Directorship, Architecture, Infrastructure        #
                #                    SHARK, DRIVERS                     #
                #        Core code/Algorithms in most modules           #
                #                                                       #
                #        Max Planck Institute fuer Kohlenforschung      #
                #                Kaiser Wilhelm Platz 1                 #
                #                 D-45470 Muelheim/Ruhr                 #
                #                      Germany                          #
                #                                                       #
                #                  All rights reserved                  #
                #                        -***-                          #
                #########################################################


                         Program Version 6.0.1  -  RELEASE   -


 With contributions from (in alphabetic order):
[Max-Planck-Institut fuer Kohlenforschung]                               
  Daniel Aravena         : Magnetic Suceptibility                        
  Michael Atanasov       : Ab Initio Ligand Field Theory (pilot matlab implementation)
  Alexander A. Auer      : GIAO ZORA, VPT2 properties, NMR spectrum      
  Ute Becker             : All parallelization in ORCA, NUMFREQ, NUMCALC 
  Giovanni Bistoni       : ED, misc. LED, open-shell LED, HFLD           
  Martin Brehm           : Molecular dynamics                            
  Dmytro Bykov           : pre 5.0 version of the SCF Hessian            
  Marcos Casanova-Páez   : Triplet and SCS-CIS(D). UHF-(DLPNO)-IP/EA/STEOM-CCSD. UHF-CVS-IP/STEOM-CCSD   
  Vijay G. Chilkuri      : MRCI spin determinant printing, contributions to CSF-ICE 
  Pauline Colinet        : FMM embedding                                 
  Dipayan Datta          : RHF DLPNO-CCSD density                        
  Achintya Kumar Dutta   : EOM-CC, STEOM-CC                              
  Nicolas Foglia         : Exact transition moments, OPA infrastructure, MCD improvements    
  Dmitry Ganyushin       : Spin-Orbit,Spin-Spin,Magnetic field MRCI      
  Miquel Garcia-Rates    : C-PCM and meta-GGA Hessian, CCSD/C-PCM, Gaussian charge scheme 
  Tiago L. C. Gouveia    : GS-ROHF, GS-ROCIS                             
  Yang Guo               : DLPNO-NEVPT2, F12-NEVPT2, CIM, IAO-localization        
  Andreas Hansen         : Spin unrestricted coupled pair/coupled cluster methods 
  Ingolf Harden          : AUTO-CI MPn and infrastructure                
  Benjamin Helmich-Paris : MC-RPA, TRAH-(SCF,CASSCF), AVAS, COSX integrals, SCF dyn. polar. 
  Lee Huntington         : MR-EOM, pCC                                   
  Robert Izsak           : Overlap fitted RIJCOSX, COSX-SCS-MP3, EOM     
  Riya Kayal             : Wick's Theorem for AUTO-CI, AUTO-CI UHF-CCSDT 
  Emily Kempfer          : AUTO-CI, RHF CISDT and CCSDT                  
  Christian Kollmar      : KDIIS, OOCD, Brueckner-CCSD(T), CCSD density, CASPT2, CASPT2-K, improved NEVPT2 
  Axel Koslowski         : Symmetry handling                             
  Simone Kossmann        : meta-GGA functionals, TD-DFT gradient, OOMP2, (MP2 Hessian; deprecated post 5.0) 
  Lucas Lang             : DCDCAS                                        
  Marvin Lechner         : AUTO-CI (C++ implementation), FIC-MRCC        
  Spencer Leger          : CASSCF response                               
  Dagmar Lenk            : GEPOL surface, SMD, ORCA-2-JSON               
  Dimitrios Liakos       : Extrapolation schemes; Compound Job, initial MDCI parallelization 
  Dimitrios Manganas     : Further ROCIS development; embedding schemes. LFT, Crystal Embedding 
  Dimitrios Pantazis     : SARC Basis sets                               
  Anastasios Papadopoulos: AUTO-CI, single reference methods and gradients 
  Taras Petrenko         : pre 6.0 DFT Hessian and TD-DFT gradient, (ASA, deprecated), ECA, 1-Electron XAS/XES, NRVS 
  Peter Pinski           : DLPNO-MP2, DLPNO-MP2 Gradient                 
  Christoph Reimann      : Effective Core Potentials                     
  Marius Retegan         : Local ZFS, SOC                                
  Christoph Riplinger    : Optimizer, TS searches, QM/MM, DLPNO-CCSD(T), (RO)-DLPNO pert. Triples 
  Michael Roemelt        : Original ROCIS implementation                 
  Masaaki Saitow         : Open-shell DLPNO-CCSD energy and density      
  Barbara Sandhoefer     : DKH picture change effects                    
  Kantharuban Sivalingam : CASSCF convergence/infrastructure, NEVPT2 and variants, FIC-MRCI 
  Bernardo de Souza      : ESD, SOC TD-DFT                               
  Georgi L. Stoychev     : AutoAux, RI-MP2 NMR, DLPNO-MP2 response, X2C  
  Van Anh Tran           : RI-MP2 g-tensors                              
  Willem Van den Heuvel  : Paramagnetic NMR                              
  Zikuan Wang            : NOTCH, Electric field optimization            
  Frank Wennmohs         : Technical directorship and infrastructure     
  Hang Xu                : AUTO-CI-Response properties                   
                                                                         
[FACCTs GmbH]                                                            
  Markus Bursch, Miquel Garcia-Rates, Christoph Riplinger, Bernardo de Souza, Georgi L. Stoychev 
                                                                 
  APM, Basis sets (HGBS, AHGBS, def-TZVP (Ac-Lr), def2-XVPD (La-Lu)), CI-OPT, improved COSX, DLPNO-Multilevel,           
  DOCKER, DRACO, updates on ESD, GOAT, IRC, LR-CPCM, MBIS, meta-GGA TD-DFT gradient, ML-optimized integration grids, 
  MM, NACMEs, nearIR, NEB, NEB-TS, NL-DFT gradient (VV10), 2- and 3-layer-ONIOM, interface openCOSMO-RS, QMMM,   
  Crystal-QMMM, SF, symmetry and pop. for TD-DFT, r2SCAN hybrids, SOLVATOR                                   
                                                                         
[Other institutions]                                                     
  V. Asgeirsson          : NEB                                           
  Christoph Bannwarth    : sTDA-DFT, sTD-DFT, PBEh-3c, B97-3c, D3        
  Sebastian Ehlert       : rSCAN, r2SCAN, r2SCAN-3c, D4, dhf basis sets  
  Marvin Friede          : D4 for Fr, Ra, Ac-Lr                          
  Lars Goerigk           : TD-DFT with DH, B97 family of functionals     
  Stefan Grimme          : VdW corrections, initial TS optimization, DFT functionals, gCP, sTDA/sTD-DF 
  Waldemar Hujo          : DFT-NL                                        
  H. Jonsson             : NEB                                           
  Holger Kruse           : gCP                                           
  Marcel Mueller         : wB97X-3c, vDZP basis set                      
  Hagen Neugebauer       : wr2SCAN                                       
  Tobias Risthaus        : range-separated hybrid DFT                    
  Lukas Wittmann         : regularized MP2, r2SCAN double-hybrids, wr2SCAN        
                                                                         
We gratefully acknowledge several colleagues who have allowed us to      
interface, adapt or use parts of their codes:                            
  Ed Valeev, F. Pavosevic, A. Kumar             : LibInt (2-el integral package), F12 methods 
  Garnet Chan, S. Sharma, J. Yang, R. Olivares  : DMRG                   
  Ulf Ekstrom                                   : XCFun DFT Library      
  Mihaly Kallay                                 : mrcc  (arbitrary order and MRCC methods)
  Frank Weinhold                                : gennbo (NPA and NBO analysis)           
  Simon Mueller                                 : openCOSMO-RS                            
  Christopher J. Cramer and Donald G. Truhlar   : smd solvation model                     
  S Lehtola, MJT Oliveira, MAL Marques          : LibXC Library                           
  Liviu Ungur et al                             : ANISO software                          


 Your calculation uses the libint2 library for the computation of 2-el integrals
 For citations please refer to: http://libint.valeyev.net

 Your ORCA version has been built with support for libXC version: 6.2.2
 For citations please refer to: https://libxc.gitlab.io

 This ORCA versions uses:
   CBLAS   interface :  Fast vector & matrix operations
   LAPACKE interface :  Fast linear algebra routines
   SCALAPACK package :  Parallel linear algebra routines
   Shared memory     :  Shared parallel matrices
   BLAS/LAPACK       :  OpenBLAS 0.3.27  USE64BITINT DYNAMIC_ARCH NO_AFFINITY Haswell SINGLE_THREADED
        Core in use  :  Haswell
   Copyright (c) 2011-2014, The OpenBLAS Project


NOTE: MaxCore=8000 MB was set to SCF,MP2,MDCI,CIPSI,MRCI and CIS
      => If you want to overwrite this, your respective input block should be placed after the MaxCore statement


***************************************
The coordinates will be read from file: isomer.xyz
***************************************


Your calculation utilizes the atom-pairwise dispersion correction
based on EEQ partial charges (D4)


================================================================================

cite the ECPs for C  [vDZP-ECP], O  [vDZP-ECP] as follows:
   B-Ne (ecp-2-mwb), Al-Ar (ecp-10-mwb), Ga-Kr (ecp-28-mwb), Y-Cd (ecp-28-mwb), In-Xe (ecp-46-mwb):
     A. Bergner, M. Dolg, W. Küchle, H. Stoll, and H. Preuß, Mol. Phys. 80, 1431 (1993)., T. Leininger, A. Berning, A. Nicklass, H. Stoll, H.-J. Werner, and H.-J.Flad, Chem. Phys. 217, 19 (1997).
   Na-Mg, K-Ca, Rb-Sr, Cs-Ba (CRENBL):
     L. Fernandez Pacios and P. A. Christiansen, J. Chem. Phys. 82, 2664 (1985)., M. M. Hurley, L. F. Pacios, P. A. Christiansen, R. B. Ross, and W. C. Ermler, J. Chem. Phys. 84, 6840 (1986)., L. A. LaJohn, P. A. Christiansen, R. B. Ross, T. Atashroo, and W. C. Ermler, J. Chem. Phys. 87, 2812 (1987)., R. B. Ross, J. M. Powers, T. Atashroo, W. C. Ermler, L. A. LaJohn, and P. A. Christiansen, J. Chem. Phys. 93, 6654 (1990). 
   Sc-Zn (ecp-10-mdf):
     M. Dolg, U. Wedig, H. Stoll, and H. Preuss, J. Chem. Phys. 86, 866 (1986). 
   Y-Cd (ecp-28-mwb), Hf-Hg (ecp-60-mwb):
     D. Andrae, U. Häußermann, M. Dolg, H. Stoll, and H. Preuß, Theor. Chim. Acta 77, 123 (1990). 
   La (ecp-46-mwb):
     M. Dolg, H. Stoll, and H. Preuss, J. Chem. Phys. 90, 1730 (1989)., M. Dolg, H. Stoll, and H. Preuss, Theor. Chim. Acta 85, 441 (1993).
   Ce-Lu (SBKJC-ecp):
     T. R. Cundari and W. J. Stevens, J. Chem. Phys. 98, 5555 (1993).
   Tl-Rn (ecp-78-mwb):
     W. Küchle, M. Dolg, H. Stoll, and H. Preuss, Mol. Phys. 74, 1245 (1991).

ECP parameters for C  [vDZP-ECP], O  [vDZP-ECP] have been obtained from:
MM, AH, SG, J. Chem. Phys. 158, 014103 (2023), 10.1063/5.0133026

----- Orbital basis set information -----
Your calculation utilizes the basis: vDZP
   Marcel Mueller, Andreas Hansen, Stefan Grimme 
   J. Chem. Phys. 158, 014103 (2023). DOI: 10.1063/5.0133026

----- AuxJ basis set information -----
Your calculation utilizes the auxiliary basis: def2/J
   F. Weigend, Phys. Chem. Chem. Phys. 8, 1057 (2006).

================================================================================
                                        WARNINGS
                       Please study these warnings very carefully!
================================================================================

WARNING: Frozen-Core approximation turned on, but there are no core electrons.
  ===> : Turning off frozen-core approximation

WARNING: Old DensityContainer found on disk!
         Will remove this file - 
         If you want to keep old densities, please start your calculation with a different basename. 


WARNING: your system is open-shell and RHF/RKS was chosen
  ===> : WILL SWITCH to UHF/UKS


================================================================================
                                       INPUT FILE
================================================================================
NAME = orca.inp
|  1>  ! DEFGRID2 
|  2>  ! wB97X-3c
|  3>  ! SP
|  4>  %pal
|  5> nprocs 4
|  6>  end
|  7>  %maxcore 8000
|  8>  *xyzfile            1             2  isomer.xyz
|  9> 
| 10>                          ****END OF INPUT****
================================================================================

                       ****************************
                       * Single Point Calculation *
                       ****************************

---------------------------------
CARTESIAN COORDINATES (ANGSTROEM)
---------------------------------
  C     -0.769741   -1.013068   -0.002453
  C      0.757918   -1.022402    0.022893
  C      0.006495    1.117629    0.032137
  O      1.110831    0.376383   -0.009748
  O     -1.106360    0.388733    0.058281
  H     -0.015486    1.859859   -0.813628
  H     -1.235753   -1.491307    0.855199
  H     -1.206001   -1.403748   -0.919064
  H      1.217545   -1.487962   -0.845168
  H      1.190271   -1.436958    0.930815
  H      0.037040    1.839172    0.895829

----------------------------
CARTESIAN COORDINATES (A.U.)
----------------------------
  NO LB      ZA    FRAG     MASS         X           Y           Z
   0 C     4.0000*   0    12.011   -1.454600   -1.914421   -0.004636
   1 C     4.0000*   0    12.011    1.432257   -1.932061    0.043262
   2 C     4.0000*   0    12.011    0.012274    2.112013    0.060731
   3 O     6.0000*   0    15.999    2.099166    0.711261   -0.018420
   4 O     6.0000*   0    15.999   -2.090717    0.734599    0.110135
   5 H     1.0000    0     1.008   -0.029265    3.514625   -1.537533
   6 H     1.0000    0     1.008   -2.335234   -2.818161    1.616093
   7 H     1.0000    0     1.008   -2.279011   -2.652699   -1.736779
   8 H     1.0000    0     1.008    2.300826   -2.811840   -1.597135
   9 H     1.0000    0     1.008    2.249287   -2.715457    1.758985
  10 H     1.0000    0     1.008    0.069995    3.475531    1.692871
* core charge reduced due to ECP

--------------------------------
INTERNAL COORDINATES (ANGSTROEM)
--------------------------------
 C      0   0   0     0.000000000000     0.00000000     0.00000000
 C      1   0   0     1.527897414326     0.00000000     0.00000000
 C      1   2   0     2.267952571462    70.32267030     0.00000000
 O      3   1   2     1.330697931116    76.12744625     2.33926731
 O      3   1   2     1.330570879609    36.81121768   183.74532874
 H      3   1   2     1.125480768014   126.97171310   108.48665693
 H      1   2   3     1.086944341432   114.38656214   241.51334829
 H      1   2   3     1.087716905701   114.38091058   113.98057900
 H      2   1   3     1.086982999013   114.33990379   241.55629424
 H      2   1   3     1.087707370404   114.43145483   113.99000984
 H      3   1   2     1.125841738508   128.54226283   256.34430891

---------------------------
INTERNAL COORDINATES (A.U.)
---------------------------
 C      0   0   0     0.000000000000     0.00000000     0.00000000
 C      1   0   0     2.887307673803     0.00000000     0.00000000
 C      1   2   0     4.285809244785    70.32267030     0.00000000
 O      3   1   2     2.514654656785    76.12744625     2.33926731
 O      3   1   2     2.514414564232    36.81121768   183.74532874
 H      3   1   2     2.126850420542   126.97171310   108.48665693
 H      1   2   3     2.054027128122   114.38656214   241.51334829
 H      1   2   3     2.055487063012   114.38091058   113.98057900
 H      2   1   3     2.054100180363   114.33990379   241.55629424
 H      2   1   3     2.055469043911   114.43145483   113.99000984
 H      3   1   2     2.127532555917   128.54226283   256.34430891

---------------------
BASIS SET INFORMATION
---------------------
There are 3 groups of distinct atoms

 Group   1 Type C   : 6s6p2d contracted to 2s2p1d pattern {42/42/2}
 Group   2 Type O   : 6s6p2d contracted to 2s2p1d pattern {42/42/2}
 Group   3 Type H   : 8s2p contracted to 2s1p pattern {53/2}

Atom   0C    basis set group =>   1
Atom   1C    basis set group =>   1
Atom   2C    basis set group =>   1
Atom   3O    basis set group =>   2
Atom   4O    basis set group =>   2
Atom   5H    basis set group =>   3
Atom   6H    basis set group =>   3
Atom   7H    basis set group =>   3
Atom   8H    basis set group =>   3
Atom   9H    basis set group =>   3
Atom  10H    basis set group =>   3
---------------------------------
AUXILIARY/J BASIS SET INFORMATION
---------------------------------
There are 3 groups of distinct atoms

 Group   1 Type C   : 12s5p4d2f1g contracted to 6s4p3d1f1g pattern {711111/2111/211/2/1}
 Group   2 Type O   : 12s5p4d2f1g contracted to 6s4p3d1f1g pattern {711111/2111/211/2/1}
 Group   3 Type H   : 5s2p1d contracted to 3s1p1d pattern {311/2/1}

Atom   0C    basis set group =>   1
Atom   1C    basis set group =>   1
Atom   2C    basis set group =>   1
Atom   3O    basis set group =>   2
Atom   4O    basis set group =>   2
Atom   5H    basis set group =>   3
Atom   6H    basis set group =>   3
Atom   7H    basis set group =>   3
Atom   8H    basis set group =>   3
Atom   9H    basis set group =>   3
Atom  10H    basis set group =>   3
-------------------------
ECP PARAMETER INFORMATION
-------------------------

 Group 1, Type C  ECP vDZP-ECP (replacing 2 core electrons, lmax=3)
 Group 2, Type O  ECP vDZP-ECP (replacing 2 core electrons, lmax=3)

Atom   0C    ECP group =>   1
Atom   1C    ECP group =>   1
Atom   2C    ECP group =>   1
Atom   3O    ECP group =>   2
Atom   4O    ECP group =>   2



           ************************************************************
           *        Program running with 4 parallel MPI-processes     *
           *              working on a common directory               *
           ************************************************************
------------------------------------------------------------------------------
                             ORCA STARTUP CALCULATIONS
                           -- RI-GTO INTEGRALS CHOSEN --
------------------------------------------------------------------------------
------------------------------------------------------------------------------
                   ___                                                        
                  /   \      - P O W E R E D   B Y -                         
                 /     \                                                     
                 |  |  |   _    _      __       _____    __    __             
                 |  |  |  | |  | |    /  \     |  _  \  |  |  /  |          
                  \  \/   | |  | |   /    \    | | | |  |  | /  /          
                 / \  \   | |__| |  /  /\  \   | |_| |  |  |/  /          
                |  |  |   |  __  | /  /__\  \  |    /   |      \           
                |  |  |   | |  | | |   __   |  |    \   |  |\   \          
                \     /   | |  | | |  |  |  |  | |\  \  |  | \   \       
                 \___/    |_|  |_| |__|  |__|  |_| \__\ |__|  \__/        
                                                                              
                      - O R C A' S   B I G   F R I E N D -                    
                                      &                                       
                       - I N T E G R A L  F E E D E R -                       
                                                                              
 v1 FN, 2020, v2 2021, v3 2022-2024                                           
------------------------------------------------------------------------------


----------------------
SHARK INTEGRAL PACKAGE
----------------------

Number of atoms                             ...     11
Number of basis functions                   ...     95
Number of shells                            ...     43
Maximum angular momentum                    ...      2
Integral batch strategy                     ... SHARK/LIBINT Hybrid
RI-J (if used) integral strategy            ... SPLIT-RIJ (Revised 2003 algorithm where possible)
Printlevel                                  ...      1
Contraction scheme used                     ... SEGMENTED contraction
Prescreening option                         ... SCHWARTZ
   Thresh                                   ... 1.000e-10
   Tcut                                     ... 1.000e-11
   Tpresel                                  ... 1.000e-11 
Coulomb Range Separation                    ... NOT USED
Exchange Range Separation                   ... Long Range
   Mu parameter                             ... 3.000e-01
   Scaling (regular/separated)              ... 1.670e-01 8.330e-01
Multipole approximations                    ... NOT USED
Finite Nucleus Model                        ... NOT USED
CABS basis                                  ... NOT available
Auxiliary Coulomb fitting basis             ... AVAILABLE
   # of basis functions in Aux-J            ...    311
   # of shells in Aux-J                     ...    105
   Maximum angular momentum in Aux-J        ...      4
Auxiliary J/K fitting basis                 ... NOT available
Auxiliary Correlation fitting basis         ... NOT available
Auxiliary 'external' fitting basis          ... NOT available

Checking pre-screening integrals            ... done (  0.0 sec) Dimension = 43
Check shell pair data                       ... done (  0.0 sec)
Shell pair information
Shell pair cut-off parameter TPreSel        ...   1.0e-11
Total number of shell pairs                 ...       946
Shell pairs after pre-screening             ...       946
Total number of primitive shell pairs       ...      8674
Primitive shell pairs kept                  ...      7968
          la=0 lb=0:    253 shell pairs
          la=1 lb=0:    352 shell pairs
          la=1 lb=1:    136 shell pairs
          la=2 lb=0:    110 shell pairs
          la=2 lb=1:     80 shell pairs
          la=2 lb=2:     15 shell pairs

Calculating one electron integrals          ... done (  0.0 sec)
Calculating ECP integrals                   ... done (  0.0 sec)
Calculating RI/J V-Matrix + Cholesky decomp.... done (  0.0 sec)
Calculating Nuclear repulsion               ... done (  0.0 sec) ENN=    109.525640863078 Eh

Diagonalization of the overlap matrix:
Smallest eigenvalue                        ... 2.173e-03
Time for diagonalization                   ...    0.002 sec
Threshold for overlap eigenvalues          ... 1.000e-07
Number of eigenvalues below threshold      ... 0
Time for construction of square roots      ...    0.000 sec
Total time needed                          ...    0.003 sec

-------------------
DFT GRID GENERATION
-------------------

General Integration Accuracy     IntAcc      ... 4.388
Radial Grid Type                 RadialGrid  ... OptM3 with GC (2021)
Angular Grid (max. ang.)         AngularGrid ... 4 (Lebedev-302)
Angular grid pruning method      GridPruning ... 4 (adaptive)
Weight generation scheme         WeightScheme... mBecke (2022)
Basis function cutoff            BFCut       ... 1.0000e-10
Integration weight cutoff        WCut        ... 1.0000e-14
Partially contracted basis set               ... off
Rotationally invariant grid construction     ... off
Angular grids for H and He will be reduced by one unit

Total number of grid points                  ...    49640
Total number of batches                      ...      780
Average number of points per batch           ...       63
Average number of grid points per atom       ...     4513

--------------------
COSX GRID GENERATION
--------------------

GRIDX 1
-------
General Integration Accuracy     IntAcc      ... 3.816
Radial Grid Type                 RadialGrid  ... OptM3 with GC (2021)
Angular Grid (max. ang.)         AngularGrid ... 1 (Lebedev-50)
Angular grid pruning method      GridPruning ... 4 (adaptive)
Weight generation scheme         WeightScheme... mBecke (2022)
Basis function cutoff            BFCut       ... 1.0000e-10
Integration weight cutoff        WCut        ... 1.0000e-14
Partially contracted basis set               ... on
Rotationally invariant grid construction     ... off
Angular grids for H and He will be reduced by one unit

Total number of grid points                  ...     6364
Total number of batches                      ...       59
Average number of points per batch           ...      107
Average number of grid points per atom       ...      579
UseSFitting                                  ... on

GRIDX 2
-------
General Integration Accuracy     IntAcc      ... 4.020
Radial Grid Type                 RadialGrid  ... OptM3 with GC (2021)
Angular Grid (max. ang.)         AngularGrid ... 2 (Lebedev-110)
Angular grid pruning method      GridPruning ... 4 (adaptive)
Weight generation scheme         WeightScheme... mBecke (2022)
Basis function cutoff            BFCut       ... 1.0000e-10
Integration weight cutoff        WCut        ... 1.0000e-14
Partially contracted basis set               ... on
Rotationally invariant grid construction     ... off
Angular grids for H and He will be reduced by one unit

Total number of grid points                  ...    13724
Total number of batches                      ...      114
Average number of points per batch           ...      120
Average number of grid points per atom       ...     1248
UseSFitting                                  ... on

GRIDX 3
-------
General Integration Accuracy     IntAcc      ... 4.338
Radial Grid Type                 RadialGrid  ... OptM3 with GC (2021)
Angular Grid (max. ang.)         AngularGrid ... 3 (Lebedev-194)
Angular grid pruning method      GridPruning ... 4 (adaptive)
Weight generation scheme         WeightScheme... mBecke (2022)
Basis function cutoff            BFCut       ... 1.0000e-10
Integration weight cutoff        WCut        ... 1.0000e-14
Partially contracted basis set               ... on
Rotationally invariant grid construction     ... off
Angular grids for H and He will be reduced by one unit

Total number of grid points                  ...    30195
Total number of batches                      ...      239
Average number of points per batch           ...      126
Average number of grid points per atom       ...     2745
UseSFitting                                  ... on
Initializing property integral containers    ... done (  0.0 sec)

SHARK setup successfully completed in   0.8 seconds

Maximum memory used throughout the entire STARTUP-calculation: 16.1 MB


           ************************************************************
           *        Program running with 4 parallel MPI-processes     *
           *              working on a common directory               *
           ************************************************************
-------------------------------------------------------------------------------
                                 ORCA GUESS
                   Start orbitals & Density for SCF / CASSCF
-------------------------------------------------------------------------------

------------
SCF SETTINGS
------------
Hamiltonian:
 Density Functional     Method          .... DFT(GTOs)
 Exchange Functional    Exchange        .... WB97X-V
 Correlation Functional Correlation     .... WB97X-V
 Gradients option       PostSCFGGA      .... off
 Hybrid DFT is turned on
   Fraction HF Exchange ScalHFX         ....  0.167000
   Scaling of DF-GGA-X  ScalDFX         ....  0.000000
   Scaling of DF-GGA-C  ScalDFC         ....  1.000000
   Scaling of DF-LDA-C  ScalLDAC        ....  1.000000
   Perturbative correction              ....  0.000000
 Long-range corrected/Screened/Range-Separated Hybrid DFT is turned on
   Amount of maximum screened exact exchange              ....  0.833000
   Range separation parameter mu (erf(mu*r12)/r12)        ....  0.300000
   NL short-range parameter             ....  6.000000
   NL long-range parameter              ....  0.010000
 RI-approximation to the Coulomb term is turned on
   Number of AuxJ basis functions       .... 311
   RIJ-COSX (HFX calculated with COS-X)).... on


General Settings:
 Integral files         IntName         .... orca
 Hartree-Fock type      HFTyp           .... UHF
 Total Charge           Charge          ....    1
 Multiplicity           Mult            ....    2
 Number of Electrons    NEL             ....   29
 Basis Dimension        Dim             ....   95
 Nuclear Repulsion      ENuc            ....    109.5256408631 Eh

Convergence Acceleration:
 AO-DIIS                CNVDIIS         .... on
   Start iteration      DIISMaxIt       ....    12
   Startup error        DIISStart       ....  0.200000
   # of expansion vecs  DIISMaxEq       ....     5
   Bias factor          DIISBfac        ....   1.050
   Max. coefficient     DIISMaxC        ....  10.000
 MO-DIIS                CNVKDIIS        .... off
 Trust-Rad. Augm. Hess. CNVTRAH         .... auto
   Auto Start mean grad. ratio tolernc. ....  1.125000
   Auto Start start iteration           ....    50
   Auto Start num. interpolation iter.  ....    10
   Max. Number of Micro iterations      ....    24
   Max. Number of Macro iterations      .... Maxiter - #DIIS iter
   Number of Davidson start vectors     ....     2
   Converg. threshold    (grad. norm)   ....   5.000e-05
   Grad. Scal. Fac. for Micro threshold ....   0.100
   Minimum threshold for Micro iter.    ....   1.000e-02
   NR start threshold (gradient norm)   ....   1.000e-04
   Initial trust radius                 ....   0.400
   Minimum AH scaling param. (alpha)    ....   1.000
   Maximum AH scaling param. (alpha)    .... 1000.000
   Quad. conv. algorithm                .... NR
   White noise on init. David. guess    .... on
   Maximum white noise                  ....   0.010
   Pseudo random numbers                .... off
   Inactive MOs                         .... canonical
   Orbital update algorithm             .... Taylor
   Preconditioner                       .... Diag
   Full preconditioner red. dimension   ....   250
 SOSCF                  CNVSOSCF        .... on
   Start iteration      SOSCFMaxIt      ....   150
   Startup grad/error   SOSCFStart      ....  0.003300
   Hessian update       SOSCFHessUp     .... L-BFGS
 Level Shifting         CNVShift        .... on
   Level shift para.    LevelShift      ....    0.2500
   Turn off err/grad.   ShiftErr        ....    0.0010
 Zerner damping         CNVZerner       .... off
 Static damping         CNVDamp         .... on
   Fraction old density DampFac         ....    0.7000
   Max. Damping (<1)    DampMax         ....    0.9800
   Min. Damping (>=0)   DampMin         ....    0.0000
   Turn off err/grad.   DampErr         ....    0.1000

SCF Procedure:
 Maximum # iterations   MaxIter         ....   125
 SCF integral mode      SCFMode         .... Direct
   Integral package                     .... SHARK and LIBINT hybrid scheme
 Reset frequency        DirectResetFreq ....    20
 Integral Threshold     Thresh          ....  1.000e-10 Eh
 Primitive CutOff       TCut            ....  1.000e-11 Eh

Convergence Tolerance:
 Convergence Check Mode ConvCheckMode   .... Total+1el-Energy
 Convergence forced     ConvForced      .... 0
 Energy Change          TolE            ....  1.000e-06 Eh
 1-El. energy change                    ....  1.000e-03 Eh
 Orbital Gradient       TolG            ....  5.000e-05
 Orbital Rotation angle TolX            ....  5.000e-05
 DIIS Error             TolErr          ....  1.000e-06

------------------------------
INITIAL GUESS: MODEL POTENTIAL
------------------------------
Loading Hartree-Fock densities                     ... done
Atomic calculation to generate a density for atom 0 (C  with ECP)
  Multiplicity assumed   :    1
  Atomic configuration   : 1s2 2s2 2p2 
  Number of open shells  : 1
  Command: /home/alejandro/orca_6_0_1/orca orca_atom6.inp "" > orca_atom6.out
Returned from the atomic calculation with res=0
Atomic calculation to generate a density for atom 3 (O  with ECP)
  Multiplicity assumed   :    3
  Atomic configuration   : 1s2 2s2 2p4 
  Number of open shells  : 1
  Command: /home/alejandro/orca_6_0_1/orca orca_atom8.inp "" > orca_atom8.out
Returned from the atomic calculation with res=0
Calculating cut-offs                               ... done
Initializing the effective Hamiltonian             ... done
Setting up the integral package (SHARK)            ... done
Starting the Coulomb interaction                   ... done (   0.0 sec)
Making the grid                                    ... done (   0.1 sec)
Mapping shells                                     ... done
Starting the XC term evaluation                    ... done (   0.0 sec)
  promolecular density results
     # of electrons  =     39.997570944
     EX              =    -22.713420783
     EC              =     -1.671817195
     EX+EC           =    -24.385237978
Transforming the Hamiltonian                       ... done (   0.0 sec)
Diagonalizing the Hamiltonian                      ... done (   0.0 sec)
Back transforming the eigenvectors                 ... done (   0.0 sec)
Now organizing SCF variables                       ... done
                      ------------------
                      INITIAL GUESS DONE (   1.0 sec)
                      ------------------
             **** ENERGY FILE WAS UPDATED (orca.en.tmp) ****
Finished Guess after   1.3 sec
Maximum memory used throughout the entire GUESS-calculation: 9.5 MB


           ************************************************************
           *        Program running with 4 parallel MPI-processes     *
           *              working on a common directory               *
           ************************************************************

-------------------------------------------------------------------------------------------
                                      ORCA LEAN-SCF
                              memory conserving SCF solver
-------------------------------------------------------------------------------------------

----------------------------------------D-I-I-S--------------------------------------------
Iteration    Energy (Eh)           Delta-E    RMSDP     MaxDP     DIISErr   Damp  Time(sec)
-------------------------------------------------------------------------------------------
               ***  Starting incremental Fock matrix formation  ***
    1    -52.3731687592283777     0.00e+00  1.47e-03  1.85e-02  4.19e-02  0.700   2.1
    2    -52.3926373914399619    -1.95e-02  1.14e-03  1.61e-02  2.68e-02  0.700   1.1
                               ***Turning on AO-DIIS***
    3    -52.4039631548010334    -1.13e-02  7.34e-04  1.18e-02  1.62e-02  0.700   1.1
    4    -52.4111938106896105    -7.23e-03  1.76e-03  2.85e-02  1.22e-02  0.000   1.0
                              *** Initializing SOSCF ***
---------------------------------------S-O-S-C-F--------------------------------------
Iteration    Energy (Eh)           Delta-E    RMSDP     MaxDP     MaxGrad    Time(sec)
--------------------------------------------------------------------------------------
    5    -52.4276330121383296    -1.64e-02  1.63e-04  3.03e-03  2.42e-03     1.1
               *** Restarting incremental Fock matrix formation ***
    6    -52.4277551079244688    -1.22e-04  1.03e-04  1.46e-03  1.19e-03     2.0
    7    -52.4277859670609701    -3.09e-05  8.42e-05  2.06e-03  1.14e-03     1.8
    8    -52.4277935322225233    -7.57e-06  2.91e-05  5.16e-04  4.26e-04     1.8
    9    -52.4277954245406193    -1.89e-06  6.15e-06  8.74e-05  5.79e-05     1.6
   10    -52.4277954724181541    -4.79e-08  2.58e-06  4.71e-05  2.21e-05     1.5
                 **** Energy Check signals convergence ****

               *****************************************************
               *                     SUCCESS                       *
               *           SCF CONVERGED AFTER  10 CYCLES          *
               *****************************************************

Recomputing exchange energy using gridx3       ... done (    3.674 sec)
Old exchange energy                            :     -5.889105523 Eh
New exchange energy                            :     -5.889097535 Eh
Exchange energy change after final integration :      0.000007989 Eh
Total energy after final integration           :    -52.427787484 Eh
             **** ENERGY FILE WAS UPDATED (orca.en.tmp) ****

----------------
TOTAL SCF ENERGY
----------------

Total Energy       :        -52.42778748363826 Eh           -1426.63263 eV

Components:
Nuclear Repulsion  :        109.52564086307817 Eh            2980.34421 eV
Electronic Energy  :       -161.95343633549632 Eh           -4406.97705 eV
One Electron Energy:       -291.90024114453627 Eh           -7943.00938 eV
Two Electron Energy:        129.94680480903995 Eh            3536.03233 eV

Virial components:
Potential Energy   :        -93.66659762416208 Eh           -2548.79770 eV
Kinetic Energy     :         41.23881014052382 Eh            1122.16507 eV
Virial Ratio       :          2.27132153679961

DFT components:
N(Alpha)           :       14.999994158393 electrons
N(Beta)            :       13.999994280075 electrons
N(Total)           :       28.999988438469 electrons
E(X)               :       -7.195571756353 Eh       
E(C)               :       -1.135920536196 Eh       
E(XC)              :       -8.331492292549 Eh       

---------------
SCF CONVERGENCE
---------------

  Last Energy change         ...    4.7878e-08  Tolerance :   1.0000e-06
  Last MAX-Density change    ...    4.7136e-05  Tolerance :   1.0000e-05
  Last RMS-Density change    ...    2.5801e-06  Tolerance :   1.0000e-06
  Last DIIS Error            ...    2.4218e-03  Tolerance :   1.0000e-06
  Last Orbital Gradient      ...    2.2051e-05  Tolerance :   5.0000e-05
  Last Orbital Rotation      ...    4.4654e-05  Tolerance :   5.0000e-05


----------------------
UHF SPIN CONTAMINATION
----------------------

Warning: in a DFT calculation there is little theoretical justification to 
         calculate <S**2> as in Hartree-Fock theory. We will do it anyways
         but you should keep in mind that the values have only limited relevance

Expectation value of <S**2>     :     0.754962
Ideal value S*(S+1) for S=0.5   :     0.750000
Deviation                       :     0.004962

----------------
ORBITAL ENERGIES
----------------
                 SPIN UP ORBITALS
  NO   OCC          E(Eh)            E(eV) 
   0   1.0000      -1.531185       -41.6657 
   1   1.0000      -1.422442       -38.7066 
   2   1.0000      -1.172975       -31.9183 
   3   1.0000      -1.032141       -28.0860 
   4   1.0000      -1.018371       -27.7113 
   5   1.0000      -0.921145       -25.0656 
   6   1.0000      -0.911767       -24.8104 
   7   1.0000      -0.829482       -22.5713 
   8   1.0000      -0.803848       -21.8738 
   9   1.0000      -0.803202       -21.8562 
  10   1.0000      -0.790738       -21.5171 
  11   1.0000      -0.736365       -20.0375 
  12   1.0000      -0.711524       -19.3616 
  13   1.0000      -0.655142       -17.8273 
  14   1.0000      -0.639670       -17.4063 
  15   0.0000      -0.097615        -2.6562 
  16   0.0000      -0.067237        -1.8296 
  17   0.0000      -0.054577        -1.4851 
  18   0.0000      -0.053897        -1.4666 
  19   0.0000      -0.033110        -0.9010 
  20   0.0000      -0.028762        -0.7827 
  21   0.0000      -0.025603        -0.6967 
  22   0.0000       0.021213         0.5772 
  23   0.0000       0.053267         1.4495 
  24   0.0000       0.080807         2.1989 
  25   0.0000       0.142695         3.8829 

                 SPIN DOWN ORBITALS
  NO   OCC          E(Eh)            E(eV) 
   0   1.0000      -1.516436       -41.2643 
   1   1.0000      -1.403238       -38.1840 
   2   1.0000      -1.166701       -31.7475 
   3   1.0000      -1.028291       -27.9812 
   4   1.0000      -0.998854       -27.1802 
   5   1.0000      -0.901320       -24.5262 
   6   1.0000      -0.889477       -24.2039 
   7   1.0000      -0.823295       -22.4030 
   8   1.0000      -0.789044       -21.4710 
   9   1.0000      -0.779263       -21.2048 
  10   1.0000      -0.755479       -20.5576 
  11   1.0000      -0.726072       -19.7574 
  12   1.0000      -0.707945       -19.2642 
  13   1.0000      -0.609792       -16.5933 
  14   0.0000      -0.349335        -9.5059 
  15   0.0000      -0.095458        -2.5976 
  16   0.0000      -0.062240        -1.6936 
  17   0.0000      -0.052377        -1.4253 
  18   0.0000      -0.049888        -1.3575 
  19   0.0000      -0.032316        -0.8794 
  20   0.0000      -0.022470        -0.6114 
  21   0.0000      -0.021720        -0.5910 
  22   0.0000       0.021518         0.5855 
  23   0.0000       0.058389         1.5888 
  24   0.0000       0.081411         2.2153 
*Only the first 10 virtual orbitals were printed.

                    ********************************
                    * MULLIKEN POPULATION ANALYSIS *
                    ********************************

--------------------------------------------
MULLIKEN ATOMIC CHARGES AND SPIN POPULATIONS
--------------------------------------------
   0 C :    0.133988   -0.005011
   1 C :    0.134049   -0.005009
   2 C :    0.280375    0.027398
   3 O :   -0.161030    0.294813
   4 O :   -0.160825    0.294908
   5 H :    0.172693    0.169355
   6 H :    0.107913    0.012726
   7 H :    0.105969    0.013941
   8 H :    0.107923    0.012747
   9 H :    0.105960    0.013879
  10 H :    0.172985    0.170253
Sum of atomic charges         :    1.0000000
Sum of atomic spin populations:    1.0000000

-----------------------------------------------------
MULLIKEN REDUCED ORBITAL CHARGES AND SPIN POPULATIONS
-----------------------------------------------------
CHARGE
  0 C s       :     1.040097  s :     1.040097
      pz      :     1.123888  p :     2.707400
      px      :     0.926488
      py      :     0.657024
      dz2     :     0.016639  d :     0.118515
      dxz     :     0.020426
      dyz     :     0.027065
      dx2y2   :     0.031009
      dxy     :     0.023377

  1 C s       :     1.040167  s :     1.040167
      pz      :     1.124613  p :     2.707274
      px      :     0.923429
      py      :     0.659233
      dz2     :     0.016566  d :     0.118510
      dxz     :     0.020278
      dyz     :     0.027265
      dx2y2   :     0.030981
      dxy     :     0.023421

  2 C s       :     1.010276  s :     1.010276
      pz      :     0.989414  p :     2.496114
      px      :     0.659014
      py      :     0.847687
      dz2     :     0.016325  d :     0.213235
      dxz     :     0.053223
      dyz     :     0.037256
      dx2y2   :     0.060186
      dxy     :     0.046245

  3 O s       :     1.737734  s :     1.737734
      pz      :     1.601766  p :     4.377341
      px      :     1.494802
      py      :     1.280773
      dz2     :     0.004752  d :     0.045955
      dxz     :     0.006884
      dyz     :     0.007149
      dx2y2   :     0.011922
      dxy     :     0.015247

  4 O s       :     1.737654  s :     1.737654
      pz      :     1.601629  p :     4.377205
      px      :     1.491397
      py      :     1.284179
      dz2     :     0.004753  d :     0.045965
      dxz     :     0.006938
      dyz     :     0.007107
      dx2y2   :     0.012173
      dxy     :     0.014994

  5 H s       :     0.782852  s :     0.782852
      pz      :     0.022937  p :     0.044455
      px      :     0.005195
      py      :     0.016323

  6 H s       :     0.849384  s :     0.849384
      pz      :     0.021081  p :     0.042703
      px      :     0.013030
      py      :     0.008592

  7 H s       :     0.851458  s :     0.851458
      pz      :     0.022675  p :     0.042573
      px      :     0.012516
      py      :     0.007382

  8 H s       :     0.849377  s :     0.849377
      pz      :     0.021379  p :     0.042700
      px      :     0.012910
      py      :     0.008412

  9 H s       :     0.851465  s :     0.851465
      pz      :     0.022424  p :     0.042575
      px      :     0.012437
      py      :     0.007714

 10 H s       :     0.782560  s :     0.782560
      pz      :     0.023442  p :     0.044455
      px      :     0.005216
      py      :     0.015797


SPIN
  0 C s       :    -0.002881  s :    -0.002881
      pz      :     0.003955  p :    -0.007939
      px      :    -0.001577
      py      :    -0.010318
      dz2     :     0.000128  d :     0.005809
      dxz     :    -0.000000
      dyz     :     0.005951
      dx2y2   :    -0.000040
      dxy     :    -0.000229

  1 C s       :    -0.002877  s :    -0.002877
      pz      :     0.003937  p :    -0.007935
      px      :    -0.001604
      py      :    -0.010268
      dz2     :     0.000100  d :     0.005804
      dxz     :     0.000013
      dyz     :     0.005961
      dx2y2   :    -0.000040
      dxy     :    -0.000231

  2 C s       :    -0.030855  s :    -0.030855
      pz      :     0.065239  p :     0.030572
      px      :    -0.007252
      py      :    -0.027415
      dz2     :     0.001175  d :     0.027681
      dxz     :    -0.005971
      dyz     :     0.033116
      dx2y2   :    -0.000288
      dxy     :    -0.000351

  3 O s       :     0.005668  s :     0.005668
      pz      :     0.276116  p :     0.290487
      px      :     0.004211
      py      :     0.010161
      dz2     :    -0.000049  d :    -0.001342
      dxz     :    -0.001087
      dyz     :     0.000002
      dx2y2   :    -0.000149
      dxy     :    -0.000060

  4 O s       :     0.005670  s :     0.005670
      pz      :     0.276005  p :     0.290581
      px      :     0.004258
      py      :     0.010319
      dz2     :    -0.000046  d :    -0.001344
      dxz     :    -0.001104
      dyz     :     0.000016
      dx2y2   :    -0.000151
      dxy     :    -0.000060

  5 H s       :     0.170953  s :     0.170953
      pz      :    -0.001402  p :    -0.001598
      px      :    -0.000447
      py      :     0.000251

  6 H s       :     0.012832  s :     0.012832
      pz      :    -0.000070  p :    -0.000106
      px      :     0.000235
      py      :    -0.000271

  7 H s       :     0.013992  s :     0.013992
      pz      :    -0.000069  p :    -0.000051
      px      :     0.000282
      py      :    -0.000263

  8 H s       :     0.012854  s :     0.012854
      pz      :    -0.000071  p :    -0.000106
      px      :     0.000235
      py      :    -0.000271

  9 H s       :     0.013929  s :     0.013929
      pz      :    -0.000066  p :    -0.000050
      px      :     0.000285
      py      :    -0.000269

 10 H s       :     0.171861  s :     0.171861
      pz      :    -0.001406  p :    -0.001608
      px      :    -0.000452
      py      :     0.000250



                     *******************************
                     * LOEWDIN POPULATION ANALYSIS *
                     *******************************

-------------------------------------------
LOEWDIN ATOMIC CHARGES AND SPIN POPULATIONS
-------------------------------------------
   0 C :    0.047933    0.010442
   1 C :    0.047978    0.010425
   2 C :    0.019752    0.139410
   3 O :    0.101475    0.281914
   4 O :    0.101611    0.282002
   5 H :    0.165147    0.120312
   6 H :    0.088462    0.008103
   7 H :    0.086883    0.009180
   8 H :    0.088485    0.008117
   9 H :    0.086850    0.009138
  10 H :    0.165425    0.120957

----------------------------------------------------
LOEWDIN REDUCED ORBITAL CHARGES AND SPIN POPULATIONS
----------------------------------------------------
CHARGE
  0 C s       :     0.779374  s :     0.779374
      pz      :     1.113609  p :     2.809232
      px      :     0.971952
      py      :     0.723671
      dz2     :     0.053084  d :     0.363461
      dxz     :     0.066271
      dyz     :     0.078213
      dx2y2   :     0.090708
      dxy     :     0.075185

  1 C s       :     0.779417  s :     0.779417
      pz      :     1.114198  p :     2.809168
      px      :     0.969523
      py      :     0.725448
      dz2     :     0.052874  d :     0.363437
      dxz     :     0.065693
      dyz     :     0.078943
      dx2y2   :     0.090368
      dxy     :     0.075558

  2 C s       :     0.734105  s :     0.734105
      pz      :     0.980695  p :     2.664432
      px      :     0.776466
      py      :     0.907270
      dz2     :     0.063021  d :     0.581711
      dxz     :     0.120186
      dyz     :     0.099326
      dx2y2   :     0.165191
      dxy     :     0.133987

  3 O s       :     1.408481  s :     1.408481
      pz      :     1.527463  p :     4.377751
      px      :     1.538160
      py      :     1.312127
      dz2     :     0.010564  d :     0.112293
      dxz     :     0.013019
      dyz     :     0.021350
      dx2y2   :     0.029772
      dxy     :     0.037589

  4 O s       :     1.408402  s :     1.408402
      pz      :     1.527351  p :     4.377664
      px      :     1.535737
      py      :     1.314577
      dz2     :     0.010582  d :     0.112323
      dxz     :     0.013168
      dyz     :     0.021207
      dx2y2   :     0.030171
      dxy     :     0.037195

  5 H s       :     0.700793  s :     0.700793
      pz      :     0.063721  p :     0.134060
      px      :     0.020928
      py      :     0.049411

  6 H s       :     0.770706  s :     0.770706
      pz      :     0.063475  p :     0.140832
      px      :     0.043952
      py      :     0.033404

  7 H s       :     0.771951  s :     0.771951
      pz      :     0.066903  p :     0.141166
      px      :     0.043003
      py      :     0.031260

  8 H s       :     0.770691  s :     0.770691
      pz      :     0.064064  p :     0.140824
      px      :     0.043648
      py      :     0.033113

  9 H s       :     0.771999  s :     0.771999
      pz      :     0.066404  p :     0.141151
      px      :     0.042770
      py      :     0.031978

 10 H s       :     0.700506  s :     0.700506
      pz      :     0.064791  p :     0.134069
      px      :     0.020974
      py      :     0.048304


SPIN
  0 C s       :    -0.001100  s :    -0.001100
      pz      :     0.005636  p :    -0.003807
      px      :    -0.001245
      py      :    -0.008198
      dz2     :     0.000332  d :     0.015349
      dxz     :     0.000129
      dyz     :     0.015114
      dx2y2   :     0.000162
      dxy     :    -0.000389

  1 C s       :    -0.001099  s :    -0.001099
      pz      :     0.005622  p :    -0.003810
      px      :    -0.001276
      py      :    -0.008156
      dz2     :     0.000261  d :     0.015334
      dxz     :     0.000169
      dyz     :     0.015132
      dx2y2   :     0.000158
      dxy     :    -0.000385

  2 C s       :    -0.006645  s :    -0.006645
      pz      :     0.085720  p :     0.063274
      px      :    -0.006795
      py      :    -0.015651
      dz2     :     0.002205  d :     0.082780
      dxz     :    -0.008221
      dyz     :     0.088165
      dx2y2   :     0.000231
      dxy     :     0.000400

  3 O s       :     0.005548  s :     0.005548
      pz      :     0.266039  p :     0.276970
      px      :     0.003278
      py      :     0.007653
      dz2     :    -0.000014  d :    -0.000604
      dxz     :     0.000390
      dyz     :    -0.000126
      dx2y2   :    -0.000557
      dxy     :    -0.000297

  4 O s       :     0.005550  s :     0.005550
      pz      :     0.265933  p :     0.277058
      px      :     0.003304
      py      :     0.007820
      dz2     :    -0.000018  d :    -0.000605
      dxz     :     0.000397
      dyz     :    -0.000127
      dx2y2   :    -0.000559
      dxy     :    -0.000298

  5 H s       :     0.122929  s :     0.122929
      pz      :    -0.000208  p :    -0.002618
      px      :    -0.000825
      py      :    -0.001584

  6 H s       :     0.008491  s :     0.008491
      pz      :    -0.000123  p :    -0.000388
      px      :     0.000183
      py      :    -0.000449

  7 H s       :     0.009398  s :     0.009398
      pz      :    -0.000148  p :    -0.000218
      px      :     0.000296
      py      :    -0.000366

  8 H s       :     0.008506  s :     0.008506
      pz      :    -0.000119  p :    -0.000389
      px      :     0.000188
      py      :    -0.000458

  9 H s       :     0.009354  s :     0.009354
      pz      :    -0.000150  p :    -0.000216
      px      :     0.000306
      py      :    -0.000372

 10 H s       :     0.123614  s :     0.123614
      pz      :    -0.000254  p :    -0.002657
      px      :    -0.000835
      py      :    -0.001568



                      *****************************
                      * MAYER POPULATION ANALYSIS *
                      *****************************

  NA   - Mulliken gross atomic population
  ZA   - Total nuclear charge
  QA   - Mulliken gross atomic charge
  VA   - Mayer's total valence
  BVA  - Mayer's bonded valence
  FA   - Mayer's free valence

  ATOM       NA         ZA         QA         VA         BVA        FA
  0 C      3.8660     4.0000     0.1340     3.8390     3.8386     0.0004
  1 C      3.8660     4.0000     0.1340     3.8390     3.8385     0.0004
  2 C      3.7196     4.0000     0.2804     4.0380     4.0185     0.0195
  3 O      6.1610     6.0000    -0.1610     2.3197     2.2363     0.0834
  4 O      6.1608     6.0000    -0.1608     2.3199     2.2365     0.0834
  5 H      0.8273     1.0000     0.1727     1.0032     0.9740     0.0292
  6 H      0.8921     1.0000     0.1079     1.0229     1.0227     0.0002
  7 H      0.8940     1.0000     0.1060     1.0228     1.0226     0.0002
  8 H      0.8921     1.0000     0.1079     1.0229     1.0227     0.0002
  9 H      0.8940     1.0000     0.1060     1.0228     1.0226     0.0002
 10 H      0.8270     1.0000     0.1730     1.0031     0.9736     0.0295

  Mayer bond orders larger than 0.100000
B(  0-C ,  1-C ) :   0.9766 B(  0-C ,  4-O ) :   0.8500 B(  0-C ,  6-H ) :   0.9833 
B(  0-C ,  7-H ) :   0.9822 B(  1-C ,  3-O ) :   0.8499 B(  1-C ,  8-H ) :   0.9833 
B(  1-C ,  9-H ) :   0.9823 B(  2-C ,  3-O ) :   1.1365 B(  2-C ,  4-O ) :   1.1365 
B(  2-C ,  5-H ) :   0.8507 B(  2-C , 10-H ) :   0.8499 B(  3-O ,  4-O ) :   0.1738 


-------
TIMINGS
-------

Total SCF time: 0 days 0 hours 0 min 19 sec 

Total time                  ....      19.077 sec
Sum of individual times     ....      19.066 sec  ( 99.9%)

SCF preparation             ....       0.359 sec  (  1.9%)
Fock matrix formation       ....      18.553 sec  ( 97.3%)
  Startup                   ....       0.008 sec  (  0.0% of F)
  Split-RI-J                ....       0.698 sec  (  3.8% of F)
  Chain of spheres X        ....      15.981 sec  ( 86.1% of F)
  XC integration            ....       1.827 sec  (  9.8% of F)
    Basis function eval.    ....       0.476 sec  ( 26.1% of XC)
    Density eval.           ....       0.406 sec  ( 22.2% of XC)
    XC-Functional eval.     ....       0.247 sec  ( 13.5% of XC)
    XC-Potential eval.      ....       0.628 sec  ( 34.4% of XC)
Diagonalization             ....       0.000 sec  (  0.0%)
Density matrix formation    ....       0.015 sec  (  0.1%)
Total Energy calculation    ....       0.013 sec  (  0.1%)
Population analysis         ....       0.011 sec  (  0.1%)
Orbital Transformation      ....       0.016 sec  (  0.1%)
Orbital Orthonormalization  ....       0.000 sec  (  0.0%)
DIIS solution               ....       0.063 sec  (  0.3%)
SOSCF solution              ....       0.034 sec  (  0.2%)
Finished LeanSCF after  19.1 sec

Maximum memory used throughout the entire LEANSCF-calculation: 13.5 MB


-------------------------------------------------------------------------------
                          DFT DISPERSION CORRECTION                            
                                                                               
                                DFTD4 V3.4.0                                   
-------------------------------------------------------------------------------
The wB97X-3c composite method is recognized
Using three-body term ABC
Active option DFTDOPT                   ...         5   

-------------------------   ----------------
Dispersion correction           -0.007206051
-------------------------   ----------------


-------------------------   --------------------
FINAL SINGLE POINT ENERGY       -52.434993534340
-------------------------   --------------------



           ************************************************************
           *        Program running with 4 parallel MPI-processes     *
           *              working on a common directory               *
           ************************************************************

------------------------------------------------------------------------------
                              ORCA PROPERTY CALCULATIONS
------------------------------------------------------------------------------

GBWName                                 ... orca.gbw
Number of atoms                         ...     11
Number of basis functions               ...     95
Max core memory                         ...   8000 MB

Electric properties:
Dipole moment                           ... YES
Quadrupole moment                       ...  NO
Static polarizability (Dipole/Dipole)   ...  NO
Static polarizability (Dipole/Quad.)    ...  NO
Static polarizability (Quad./Quad.)     ...  NO
Static polarizability (Velocity)        ...  NO

Atomic electric properties:
Dipole moment                           ...  NO
Quadrupole moment                       ...  NO
Static polarizability                   ...  NO

Choice of electric origin               ... Center of mass
Position of electric origin             ...    -0.000126    -0.023494     0.038591

General magnetic properties:
Magnetizability                         ...  NO

EPR properties:
g-Tensor (aka g-matrix)                 ...  NO
Zero-Field splitting spin-orbit         ...  NO
Zero-field splitting spin-spin          ...  NO
Hyperfine couplings                     ...  NO (   0 nuclei)
Quadrupole couplings                    ...  NO (   0 nuclei)
Contact density                         ...  NO (   0 nuclei)

NMR properties:
Chemical shifts                         ...  NO (   0 nuclei)
Spin-rotation constants                 ...  NO (   0 nuclei)
Spin-spin couplings                     ...  NO (   0 nuclei,    0 pairs)

Choice of magnetic origin               ... GIAO
Position of magnetic origin             ...     0.000000     0.000000     0.000000

Properties with geometric perturbations:
SCF Hessian                             ...  NO
IR spectrum                             ...  NO
VCD spectrum                            ...  NO
X-ray spectroscopy properties:
SCF XES/XAS/RIXS spectra                ...  NO


-------------
DIPOLE MOMENT
-------------

Method             : SCF
Type of density    : Electron Density
Multiplicity       :   2
Irrep              :   0
Energy             :   -52.4277874836382551 Eh
Relativity type    : 
Basis              : AO
                                X                 Y                 Z
Electronic contribution:      0.008937525       1.567725488       0.014840699
Nuclear contribution   :     -0.009196897      -1.565879474      -0.013516464
                        -----------------------------------------
Total Dipole Moment    :     -0.000259372       0.001846014       0.001324235
                        -----------------------------------------
Magnitude (a.u.)       :      0.002286622
Magnitude (Debye)      :      0.005812131



--------------------
Rotational spectrum 
--------------------
 
Rotational constants in cm-1:             0.263536             0.260609             0.141324 
Rotational constants in MHz :          7900.603810          7812.846697          4236.780021 

Dipole components along the rotational axes: 
x,y,z [a.u.] :     0.001860     0.000277     0.001301 
x,y,z [Debye]:     0.004727     0.000705     0.003307 

 

Dipole moment calculation done in   0.0 sec 

Maximum memory used throughout the entire PROP-calculation: 6.4 MB

--------------------------------
SUGGESTED CITATIONS FOR THIS RUN
--------------------------------

Below you find a list of papers that are relevant to this ORCA run
We neither can nor want to force you to cite these papers, but we appreciate if you do
You receive ORCA, which is the product of decades of hard work by many enthusiastic individuals, for free
The only thing we kindly ask in return is that you cite our papers,
We deeply appreciate it, if you show your appreciation for ORCA by not just citing the generic ORCA reference.

Please note that relegating all ORCA citations to the supporting information does *not* help us.
SI sections are not indexed - citations you put there will not count into any citation statistics
But we need these citations in order to attract the funding resources that allow us to do what we are doing

Therefore, if you are a happy ORCA user, please consider citing a few of the papers listed below in the main body of your paper

In addition to the list printed below, the program has created the file orca.bibtex that contains the list in bibtex format
You can import this file easily into all common literature databanks and citation aid programs


List of essential papers. We consider these as the minimum necessary citations

  1. Neese,F.
     Software update: the ORCA program system, version 5.0
     WIRES Comput. Molec. Sci., 2022 12(1)e1606
     doi.org/10.1002/wcms.1606
  2. Mueller,M.; Hansen,A.; Grimme,S.
     wB97X-3c: A composite range-separated hybrid DFT method with a molecule-optimized polarized valence double-zeta basis set
     J. Chem. Phys., 2023 158 014103
     doi.org/10.1063/5.0133026

List of papers to cite with high priority. The work reported in these papers was absolutely
necessary for this run to complete.
Our perspective: the developers of density functionals and basis sets usually get cited in chemistry papers
Good! But without the algorithms to do something with them, the functionals or basis sets would not do anything.
Hence, in our opinion, the algorithm design and method developments papers are equally worthy of getting cited

  1. Neese,F.
     An improvement of the resolution of the identity approximation for the formation of the Coulomb matrix
     J. Comp. Chem., 2003 24(14)1740-1747
     doi.org/10.1002/jcc.10318
  2. Neese,F.; Wennmohs,F.; Hansen,A.; Becker,U.
     Efficient, approximate and parallel Hartree-Fock and hybrid DFT calculations. A 'chain-of-spheres' algorithm for the Hartree-Fock exchange
     Chem. Phys., 2009 356(1-3)98-109
     doi.org/10.1016/j.chemphys.2008.10.036
  3. Helmich-Paris,B.; de Souza,B.; Neese,F.; Izsák,R.
     An improved chain of spheres for exchange algorithm
     J. Chem. Phys., 2021 155 104109
     doi.org/doi: 10.1063/5.0058766.
  4. Neese,F.
     The SHARK Integral Generation and Digestion System
     J. Comp. Chem., 2022  1-16
     doi.org/10.1002/jcc.26942
  5. Caldeweyher,E.; Bannwarth,C.; Grimme,S.
     Extension of the D3 dispersion coefficient model
     J. Chem. Phys., 2017 147 034112
     doi.org/10.1063/1.4993215
  6. Caldeweyher,E.; Ehlert,S.; Hansen,A.; Neugebauer,H.; Spicher,S.; Bannwarth,C.; Grimme,S.
     A generally applicable atomic-charge dependent London dispersion correction
     J. Chem. Phys., 2019 150 154122
     doi.org/10.1063/1.5090222
  7. Caldeweyher,E.; Mewes,J.; Ehlert,S.; Grimme,S.
     Extension and evaluation of the D4 London-dispersion model for periodic systems
     Phys. Chem. Chem. Phys., 2020 22(16)8499-8512
     doi.org/10.1039/D0CP00502A
  8. Wittmann,L.; Gordiy,I.; Friede,M.; Helmich-Paris,B.; Grimme,S.; Hansen,A.; Bursch,M.
     Extension of the D3 and D4 London Dispersion Corrections to the full Actinides Series
     Phys. Chem. Chem. Phys., 2024 26(32)21379-21394
     doi.org/https://doi.org/10.1039/D4CP01514B 

List of suggested additional citations. These are papers that are important in the 'surrounding' of 
of this run, or papers that preceded the highly important papers. If you like your results we are grateful for a citation.

  1. Izsak,R.; Neese,F.
     An overlap fitted chain of spheres exchange method
     J. Chem. Phys., 2011 135 144105
     doi.org/10.1063/1.3646921
  2. Izsak,R.; Hansen,A.; Neese,F.
     The resolution of identity and chain of spheres approximations for the LPNO-CCSD singles Fock term
     Molec. Phys., 2012 110 2413-2417
     doi.org/10.1080/00268976.2012.687466
  3. Neese,F.
     The ORCA program system
     WIRES Comput. Molec. Sci., 2012 2(1)73-78
     doi.org/10.1002/wcms.81
  4. Izsak,R.; Neese,F.; Klopper,W.
     Robust fitting techniques in the chain of spheres approximation to the Fock exchange: The role of the complementary space
     J. Chem. Phys., 2013 139 
     doi.org/10.1063/1.4819264
  5. Neese,F.
     Software update: the ORCA program system, version 4.0
     WIRES Comput. Molec. Sci., 2018 8(1)1-6
     doi.org/10.1002/wcms.1327
  6. Neese,F.; Wennmohs,F.; Becker,U.; Riplinger,C.
     The ORCA quantum chemistry program package
     J. Chem. Phys., 2020 152 Art. No. L224108
     doi.org/10.1063/5.0004608

List of optional additional citations

  1. Neese,F.
     Approximate second-order SCF convergence for spin unrestricted wavefunctions
     Chem. Phys. Lett., 2000 325(1-3)93-98
     doi.org/10.1016/s0009-2614(00)00662-x

Timings for individual modules:

Sum of individual times          ...       22.630 sec (=   0.377 min)
Startup calculation              ...        1.276 sec (=   0.021 min)   5.6 %
SCF iterations                   ...       20.835 sec (=   0.347 min)  92.1 %
Property calculations            ...        0.519 sec (=   0.009 min)   2.3 %
                             ****ORCA TERMINATED NORMALLY****
TOTAL RUN TIME: 0 days 0 hours 0 minutes 23 seconds 254 msec
