 Entering Gaussian System
 *********************************************
 Gaussian 98:
 frequency output generated by the xtb code
 *********************************************
                         Standard orientation:
 --------------------------------------------------------------------
  Center     Atomic     Atomic              Coordinates (Angstroms)
  Number     Number      Type              X           Y           Z
 --------------------------------------------------------------------
    1          8             0       -3.619641    1.227225    0.192778
    2          1             0       -4.105118    1.270391    1.019025
    3          1             0       -4.262984    1.265607   -0.517766
 --------------------------------------------------------------------
     1 basis functions        1 primitive gaussians
     1 alpha electrons        1 beta electrons

 Harmonic frequencies (cm**-1), IR intensities (km*mol⁻¹),
 Raman scattering activities (A**4/amu), Raman depolarization ratios,
 reduced masses (AMU), force constants (mDyne/A) and normal coordinates:
                      1                      2                      3
                        a                      a                      a 
 Frequencies --  1539.3690              3641.6958              3650.1336
 Red. masses --     2.1460                 1.5474                 2.1402
 Frc consts  --     0.0000                 0.0000                 0.0000
 IR Inten    --   133.2210                 6.7671                16.6298
 Raman Activ --     0.0000                 0.0000                 0.0000
 Depolar     --     0.0000                 0.0000                 0.0000
 Atom AN      X      Y      Z        X      Y      Z        X      Y      Z
   1   8     0.27  -0.02  -0.03    -0.19   0.01   0.02    -0.03  -0.00  -0.27
   2   1    -0.59   0.04  -0.34     0.32  -0.03  -0.62    -0.34   0.03   0.59
   3   1    -0.50   0.04   0.45     0.43  -0.03   0.54     0.46  -0.03   0.50
