3
 energy: -5.070483760619 gnorm: 0.004513591653 xtb: 6.7.1 (edcfbbe)
O           -3.61329030623663        1.22674629283933        0.19211662165743
H           -4.10925865115845        1.27056837154405        1.01006571956840
H           -4.26521508260491        1.26584445561662       -0.50818118122583
3
 energy: -5.070529473770 gnorm: 0.002277326165 xtb: 6.7.1 (edcfbbe)
O           -3.61567162143262        1.22691830314729        0.19235987273805
H           -4.10755296943742        1.27049799782646        1.01496090032762
H           -4.26453944912994        1.26574281902625       -0.51331961306566
3
 energy: -5.070543295221 gnorm: 0.001248152448 xtb: 6.7.1 (edcfbbe)
O           -3.61853447196927        1.22712510230067        0.19265288331525
H           -4.10573478934196        1.27040632885998        1.01858099835357
H           -4.26349477868876        1.26562768883935       -0.51723272166882
3
 energy: -5.070544400663 gnorm: 0.000148847050 xtb: 6.7.1 (edcfbbe)
O           -3.61964758997979        1.22720551160262        0.19276707658503
H           -4.10512795170943        1.27036764307307        1.01901297679635
H           -4.26298849831077        1.26558596532431       -0.51777889338137
