 Entering Gaussian System
 *********************************************
 Gaussian 98:
 frequency output generated by the xtb code
 *********************************************
                         Standard orientation:
 --------------------------------------------------------------------
  Center     Atomic     Atomic              Coordinates (Angstroms)
  Number     Number      Type              X           Y           Z
 --------------------------------------------------------------------
    1          6             0       -0.889740    3.205877    0.017666
    2          8             0       -2.003673    2.781776    0.038204
    3          1             0       -0.315389    3.421910    0.934392
    4          1             0       -0.345845    3.412127   -0.919655
 --------------------------------------------------------------------
     1 basis functions        1 primitive gaussians
     1 alpha electrons        1 beta electrons

 Harmonic frequencies (cm**-1), IR intensities (km*mol⁻¹),
 Raman scattering activities (A**4/amu), Raman depolarization ratios,
 reduced masses (AMU), force constants (mDyne/A) and normal coordinates:
                      1                      2                      3
                        a                      a                      a 
 Frequencies --  1085.3475              1202.9726              1489.1620
 Red. masses --     4.2971                 4.5038                 1.8333
 Frc consts  --     0.0000                 0.0000                 0.0000
 IR Inten    --     1.3321                26.1720                 0.0361
 Raman Activ --     0.0000                 0.0000                 0.0000
 Depolar     --     0.0000                 0.0000                 0.0000
 Atom AN      X      Y      Z        X      Y      Z        X      Y      Z
   1   6    -0.18   0.48   0.00    -0.01  -0.00  -0.46     0.08   0.03  -0.00
   2   8     0.05  -0.14  -0.00     0.00   0.00   0.27     0.21   0.08  -0.00
   3   1     0.21  -0.56  -0.00    -0.50  -0.19   0.26    -0.54  -0.21   0.37
   4   1     0.21  -0.56  -0.00     0.51   0.19   0.24    -0.55  -0.21  -0.35
                      4                      5                      6
                        a                      a                      a 
 Frequencies --  1805.8073              2791.6797              2837.9877
 Red. masses --    13.4305                 2.0292                 1.3648
 Frc consts  --     0.0000                 0.0000                 0.0000
 IR Inten    --   150.8360               117.7889                71.6040
 Raman Activ --     0.0000                 0.0000                 0.0000
 Depolar     --     0.0000                 0.0000                 0.0000
 Atom AN      X      Y      Z        X      Y      Z        X      Y      Z
   1   6    -0.70  -0.27   0.01    -0.01  -0.00  -0.30     0.17   0.06  -0.00
   2   8     0.60   0.23  -0.01    -0.00  -0.00  -0.01     0.02   0.01  -0.00
   3   1     0.01   0.00  -0.10     0.37   0.14   0.54    -0.34  -0.13  -0.59
   4   1     0.01   0.00   0.10    -0.35  -0.13   0.56    -0.32  -0.12   0.61
