4
 energy: -7.175492579384 gnorm: 0.011748633369 xtb: 6.7.1 (edcfbbe)
C           -0.87940741803991        3.20983644696406        0.01741605214383
O           -1.99771257426413        2.78436533119420        0.03818350307312
H           -0.32345704484949        3.41865764512925        0.94559753037913
H           -0.35413734284646        3.40881083671248       -0.93058021559608
4
 energy: -7.175611709162 gnorm: 0.005505247161 xtb: 6.7.1 (edcfbbe)
C           -0.88458175593096        3.20785106538279        0.01753997372209
O           -2.00033982848367        2.78322587112291        0.03818191071346
H           -0.31962630539990        3.42019973668045        0.93901143155038
H           -0.35016649018546        3.41039358681384       -0.92411644598594
4
 energy: -7.175647537985 gnorm: 0.000562640174 xtb: 6.7.1 (edcfbbe)
C           -0.88964030959525        3.20591487431975        0.01766325668784
O           -2.00357708785833        2.78183866555115        0.03819869895636
H           -0.31553005003824        3.42184662667091        0.93394736709374
H           -0.34596693250817        3.41207009345818       -0.91919245273795
4
 energy: -7.175647791930 gnorm: 0.000342959088 xtb: 6.7.1 (edcfbbe)
C           -0.88975689224960        3.20587204250628        0.01766868516250
O           -2.00368753589638        2.78176500759456        0.03820156667700
H           -0.31541064195066        3.42190667515233        0.93439710726319
H           -0.34585930990335        3.41212653474683       -0.91965048910269
