 Entering Gaussian System
 *********************************************
 Gaussian 98:
 frequency output generated by the xtb code
 *********************************************
                         Standard orientation:
 --------------------------------------------------------------------
  Center     Atomic     Atomic              Coordinates (Angstroms)
  Number     Number      Type              X           Y           Z
 --------------------------------------------------------------------
    1          6             0        2.380043    3.968200   -0.384094
    2          8             0        1.451677    3.518870    0.188788
    3          1             0        2.723741    5.011228   -0.380877
 --------------------------------------------------------------------
     1 basis functions        1 primitive gaussians
     1 alpha electrons        1 beta electrons

 Harmonic frequencies (cm**-1), IR intensities (km*mol⁻¹),
 Raman scattering activities (A**4/amu), Raman depolarization ratios,
 reduced masses (AMU), force constants (mDyne/A) and normal coordinates:
                      1                      2                      3
                        a                      a                      a 
 Frequencies --  1044.6725              1948.9052              2754.7960
 Red. masses --     3.6289                13.5599                 1.7540
 Frc consts  --     0.0000                 0.0000                 0.0000
 IR Inten    --    35.3390                76.8228                51.1991
 Raman Activ --     0.0000                 0.0000                 0.0000
 Depolar     --     0.0000                 0.0000                 0.0000
 Atom AN      X      Y      Z        X      Y      Z        X      Y      Z
   1   6     0.12  -0.33  -0.17    -0.60  -0.24   0.38     0.09   0.24  -0.01
   2   8     0.07   0.24   0.01     0.52   0.24  -0.32     0.01   0.02  -0.00
   3   1    -0.67   0.20   0.54    -0.00  -0.12  -0.03    -0.34  -0.90   0.03
