      -----------------------------------------------------------      
     |                   =====================                   |     
     |                           x T B                           |     
     |                   =====================                   |     
     |                         S. Grimme                         |     
     |          Mulliken Center for Theoretical Chemistry        |     
     |                    University of Bonn                     |     
      -----------------------------------------------------------      

   * xtb version 6.7.1 (edcfbbe) compiled by 'conda@afd1a870197c' on 2025-04-11

   xtb is free software: you can redistribute it and/or modify it under
   the terms of the GNU Lesser General Public License as published by
   the Free Software Foundation, either version 3 of the License, or
   (at your option) any later version.
   
   xtb is distributed in the hope that it will be useful,
   but WITHOUT ANY WARRANTY; without even the implied warranty of
   MERCHANTABILITY or FITNESS FOR A PARTICULAR PURPOSE.  See the
   GNU Lesser General Public License for more details.
   
   Cite this work as:
   * C. Bannwarth, E. Caldeweyher, S. Ehlert, A. Hansen, P. Pracht,
     J. Seibert, S. Spicher, S. Grimme, WIREs Comput. Mol. Sci., 2020, 11,
     e01493. DOI: 10.1002/wcms.1493
   
   for GFN2-xTB:
   * C. Bannwarth, S. Ehlert and S. Grimme., J. Chem. Theory Comput., 2019,
     15, 1652-1671. DOI: 10.1021/acs.jctc.8b01176
   for GFN1-xTB:
   * S. Grimme, C. Bannwarth, P. Shushkov, J. Chem. Theory Comput., 2017,
     13, 1989-2009. DOI: 10.1021/acs.jctc.7b00118
   for GFN0-xTB:
   * P. Pracht, E. Caldeweyher, S. Ehlert, S. Grimme, ChemRxiv, 2019, preprint.
     DOI: 10.26434/chemrxiv.8326202.v1
   for GFN-FF:
   * S. Spicher and S. Grimme, Angew. Chem. Int. Ed., 2020, 59, 15665-15673.
     DOI: 10.1002/anie.202004239
   
   for ALPB and GBSA implicit solvation:
   * S. Ehlert, M. Stahn, S. Spicher, S. Grimme, J. Chem. Theory Comput.,
     2021, 17, 4250-4261. DOI: 10.1021/acs.jctc.1c00471
   
   for ddCOSMO and CPCM-X implicit solvation:
   * M. Stahn, S. Ehlert, S. Grimme, J. Phys. Chem. A,
     2023, XX, XXXX-XXXX. DOI: 10.1021/acs.jpca.3c04382
   
   for DFT-D4:
   * E. Caldeweyher, C. Bannwarth and S. Grimme, J. Chem. Phys., 2017,
     147, 034112. DOI: 10.1063/1.4993215
   * E. Caldeweyher, S. Ehlert, A. Hansen, H. Neugebauer, S. Spicher,
     C. Bannwarth and S. Grimme, J. Chem. Phys., 2019, 150, 154122.
     DOI: 10.1063/1.5090222
   * E. Caldeweyher, J.-M. Mewes, S. Ehlert and S. Grimme, Phys. Chem. Chem. Phys.
     2020, 22, 8499-8512. DOI: 10.1039/D0CP00502A
   
   for sTDA-xTB:
   * S. Grimme and C. Bannwarth, J. Chem. Phys., 2016, 145, 054103.
     DOI: 10.1063/1.4959605
   
   in the mass-spec context:
   * V. Asgeirsson, C. Bauer and S. Grimme, Chem. Sci., 2017, 8, 4879.
     DOI: 10.1039/c7sc00601b
   * J. Koopman and S. Grimme, ACS Omega 2019, 4, 12, 15120-15133.
     DOI: 10.1021/acsomega.9b02011
   
   for metadynamics refer to:
   * S. Grimme, J. Chem. Theory Comput., 2019, 155, 2847-2862
     DOI: 10.1021/acs.jctc.9b00143
   
   for SPH calculations refer to:
   * S. Spicher and S. Grimme, J. Chem. Theory Comput., 2021, 17, 1701-1714
     DOI: 10.1021/acs.jctc.0c01306
   
   for ONIOM refer to:
   * C. Plett, A. Katbashev, S. Ehlert, S. Grimme, M. Bursch,
     Phys. Chem. Chem. Phys., 2023, 25, 17860-17868. DOI: 10.1039/D3CP02178E
   
   for DIPRO refer to:
   * J. Kohn, N. Gildemeister, S. Grimme, D. Fazzi, A. Hansen,
     J. Chem. Phys., 2023, just accepted.
   
   for PTB refer to:
   * S. Grimme, M. Mueller, A. Hansen, J. Chem. Phys., 2023, 158, 124111.
     DOI: 10.1063/5.0137838
   
   with help from (in alphabetical order)
   P. Atkinson, C. Bannwarth, F. Bohle, G. Brandenburg, E. Caldeweyher
   M. Checinski, S. Dohm, S. Ehlert, S. Ehrlich, I. Gerasimov, C. Hölzer
   A. Katbashev, J. Kohn, J. Koopman, C. Lavigne, S. Lehtola, F. März, M. Müller,
   F. Musil, H. Neugebauer, J. Pisarek, C. Plett, P. Pracht, F. Pultar,
   J. Seibert, P. Shushkov, S. Spicher, M. Stahn, M. Steiner, T. Strunk,
   J. Stückrath, T. Rose, and J. Unsleber
   
 * started run on 2025/06/07 at 21:26:37.861     
   ID    Z sym.   atoms
    1    6 C      1
    2    8 O      2
    3    1 H      3

           -------------------------------------------------
          |                Calculation Setup                |
           -------------------------------------------------

          program call               : xtb xtbin.xyz --bhess --gfn2 --etemp 300
          coordinate file            : xtbin.xyz
          omp threads                :                     1


           -------------------------------------------------
          |                 G F N 2 - x T B                 |
           -------------------------------------------------

        Reference                      10.1021/acs.jctc.8b01176
      * Hamiltonian:
        H0-scaling (s, p, d)           1.850000    2.230000    2.230000
        zeta-weighting                 0.500000
      * Dispersion:
        s8                             2.700000
        a1                             0.520000
        a2                             5.000000
        s9                             5.000000
      * Repulsion:
        kExp                           1.500000    1.000000
        rExp                           1.000000
      * Coulomb:
        alpha                          2.000000
        third order                    shell-resolved
        anisotropic                    true
        a3                             3.000000
        a5                             4.000000
        cn-shift                       1.200000
        cn-exp                         4.000000
        max-rad                        5.000000


          ...................................................
          :                      SETUP                      :
          :.................................................:
          :  # basis functions                   9          :
          :  # atomic orbitals                   9          :
          :  # shells                            5          :
          :  # electrons                        11          :
          :  max. iterations                   250          :
          :  Hamiltonian                  GFN2-xTB          :
          :  restarted?                      false          :
          :  GBSA solvation                  false          :
          :  PC potential                    false          :
          :  electronic temp.          300.0000000     K    :
          :  accuracy                    1.0000000          :
          :  -> integral cutoff          0.2500000E+02      :
          :  -> integral neglect         0.1000000E-07      :
          :  -> SCF convergence          0.1000000E-05 Eh   :
          :  -> wf. convergence          0.1000000E-03 e    :
          :  Broyden damping             0.4000000          :
          :  net charge                          0          :
          :  unpaired electrons                  1          :
          ...................................................

 iter      E             dE          RMSdq      gap      omega  full diag
   1     -6.6555541 -0.665555E+01  0.609E+00    1.67       0.0  T
   2     -6.6571352 -0.158115E-02  0.352E+00    1.59       1.0  T
   3     -6.6567338  0.401368E-03  0.823E-01    1.54       1.0  T
   4     -6.6574049 -0.671110E-03  0.208E-01    1.53       1.0  T
   5     -6.6574452 -0.402740E-04  0.109E-01    1.55       1.0  T
   6     -6.6574548 -0.958978E-05  0.715E-02    1.54       1.0  T
   7     -6.6574704 -0.156079E-04  0.249E-03    1.54      23.2  T
   8     -6.6574704 -0.179553E-08  0.105E-03    1.54      54.9  T
   9     -6.6574704 -0.127187E-09  0.186E-04    1.54     309.7  T
  10     -6.6574704 -0.393330E-10  0.125E-04    1.54     461.4  T

   *** convergence criteria satisfied after 10 iterations ***

         #    Occupation            Energy/Eh            Energy/eV
      -------------------------------------------------------------
         1        2.0000           -0.7542015             -20.5229
         2        2.0000           -0.6315079             -17.1842
         3        2.0000           -0.5829332             -15.8624
         4        2.0000           -0.5726970             -15.5839
         5        2.0000           -0.5176448             -14.0858
         6        1.0000           -0.3362189              -9.1490 (HOMO)
         7                         -0.2794795              -7.6050 (LUMO)
         8                          0.1356574               3.6914
         9                          0.6535808              17.7848
      -------------------------------------------------------------
                  HL-Gap            0.0567394 Eh            1.5440 eV
             Fermi-level           -0.3673906 Eh           -9.9972 eV

 SCC (total)                   0 d,  0 h,  0 min,  0.002 sec
 SCC setup                      ...        0 min,  0.000 sec (  5.280%)
 Dispersion                     ...        0 min,  0.000 sec (  0.714%)
 classical contributions        ...        0 min,  0.000 sec (  0.651%)
 integral evaluation            ...        0 min,  0.000 sec ( 10.073%)
 iterations                     ...        0 min,  0.001 sec ( 64.733%)
 molecular gradient             ...        0 min,  0.000 sec ( 13.285%)
 printout                       ...        0 min,  0.000 sec (  4.568%)

         :::::::::::::::::::::::::::::::::::::::::::::::::::::
         ::                     SUMMARY                     ::
         :::::::::::::::::::::::::::::::::::::::::::::::::::::
         :: total energy              -6.594625322177 Eh    ::
         :: gradient norm              0.026586480426 Eh/a0 ::
         :: HOMO-LUMO gap              1.543957884922 eV    ::
         ::.................................................::
         :: SCC energy                -6.657470422775 Eh    ::
         :: -> isotropic ES            0.008594057437 Eh    ::
         :: -> anisotropic ES          0.000318754660 Eh    ::
         :: -> anisotropic XC          0.002880530615 Eh    ::
         :: -> dispersion             -0.000444085299 Eh    ::
         :: repulsion energy           0.062845100598 Eh    ::
         :: add. restraining           0.000000000000 Eh    ::
         :: total charge               0.000000000000 e     ::
         :::::::::::::::::::::::::::::::::::::::::::::::::::::

metadynamics with 1 initial structures loaded
           -------------------------------------------------
          |           Optimal kpush determination           |
           -------------------------------------------------
      ----------------------------------------------------------- 
     |                   =====================                   |
     |                        A N C O P T                        |
     |                   =====================                   |
     |               Approximate Normal Coordinate               |
     |                Rational Function Optimizer                |
      ----------------------------------------------------------- 
target rmsd / Å         0.100000
unbiased initial rmsd   0.020741

iter. min.        max.        rmsd       kpush
final kpush: -0.000000
           -------------------------------------------------
          |            Biased Numerical Hessian             |
           -------------------------------------------------
kpush                :  -0.00000
alpha                :   1.00000
step length          :   0.00500
SCC accuracy         :   0.30000
Hessian scale factor :   1.00000
frozen atoms in %    :   0.00000    0
RMS gradient         :   0.00067
estimated CPU  time      0.00 min
estimated wall time      0.00 min

writing file <hessian>.

 projected vibrational frequencies (cm⁻¹)
eigval :       -0.00    -0.00    -0.00     0.00     0.00     0.00
eigval :     1044.67  1948.91  2754.80
           -------------------------------------------------
          |                Property Printout                |
           -------------------------------------------------

    * Orbital Energies and Occupations

         #    Occupation            Energy/Eh            Energy/eV
      -------------------------------------------------------------
         1        2.0000           -0.7516410             -20.4532
         2        2.0000           -0.6304649             -17.1558
         3        2.0000           -0.5799882             -15.7823
         4        2.0000           -0.5697948             -15.5049
         5        2.0000           -0.5215858             -14.1931
         6        1.0000           -0.3327447              -9.0544 (HOMO)
         7                         -0.2822268              -7.6798 (LUMO)
         8                          0.1540627               4.1923
         9                          0.6330116              17.2251
      -------------------------------------------------------------
                  HL-Gap            0.0505179 Eh            1.3747 eV
             Fermi-level           -0.3673255 Eh           -9.9954 eV

     #   Z          covCN         q      C6AA      α(0)
     1   6 C        1.779     0.105    28.612     8.647
     2   8 O        0.856    -0.185    17.818     5.659
     3   1 H        0.923     0.079     1.985     2.204

 Mol. C6AA /au·bohr⁶  :        119.543373
 Mol. C8AA /au·bohr⁸  :       2747.518598
 Mol. α(0) /au        :         16.509550


Wiberg/Mayer (AO) data.
largest (>0.10) Wiberg bond orders for each atom

 ---------------------------------------------------------------------------
     #   Z sym  total        # sym  WBO       # sym  WBO       # sym  WBO
 ---------------------------------------------------------------------------
     1   6 C    3.238 --     2 O    2.294     3 H    0.944
     2   8 O    2.336 --     1 C    2.294
     3   1 H    0.986 --     1 C    0.944
 ---------------------------------------------------------------------------

Topologies differ in total number of bonds
Writing topology from bond orders to xtbtopo.mol

molecular dipole:
                 x           y           z       tot (Debye)
 q only:        0.375       0.313      -0.199
   full:        0.360       0.533      -0.134       1.669
molecular quadrupole (traceless):
                xx          xy          yy          xz          yz          zz
 q only:        0.369       6.076       3.415      -1.227      -2.328      -3.785
  q+dip:       -1.803       7.424       7.538      -0.575      -1.642      -5.735
   full:       -1.871       7.013       7.119       0.117      -1.691      -5.247

           -------------------------------------------------
          |                Geometry Summary                 |
           -------------------------------------------------

      molecular mass/u    :       29.0180816
   center of mass at/Å    :        1.8801175       3.7566869      -0.0681184
  moments of inertia/u·Å² :        0.6203214E+00   0.1141800E+02   0.1203833E+02
rotational constants/cm⁻¹ :        0.2717564E+02   0.1476408E+01   0.1400330E+01

 * 1 selected distances

     #   Z          #   Z                                           value/Å
     1   6 C        2   8 O                                       1.1798116 (max)

 * 1 distinct bonds (by element types)

   Z      Z             #   av. dist./Å        max./Å        min./Å
   6 C    8 O           1     1.1798116     1.1798116     1.1798116

           -------------------------------------------------
          |               Frequency Printout                |
           -------------------------------------------------
 projected vibrational frequencies (cm⁻¹)
eigval :       -0.00    -0.00    -0.00     0.00     0.00     0.00
eigval :     1044.67  1948.91  2754.80
 reduced masses (amu)
   1:  9.18   2: 14.32   3:  7.80   4: 11.14   5: 13.93   6: 11.75   7:  3.63   8: 13.56
   9:  1.75
 IR intensities (km·mol⁻¹)
   1: 16.17   2:  4.09   3: 18.09   4:  6.60   5:  2.95   6:  8.84   7: 35.34   8: 76.82
   9: 51.20
 Raman intensities (Ä⁴*amu⁻¹)
   1:  0.00   2:  0.00   3:  0.00   4:  0.00   5:  0.00   6:  0.00   7:  0.00   8:  0.00
   9:  0.00
 output can be read by thermo (or use thermo option).
 writing <g98.out> molden fake output.
 recommended (thermochemical) frequency scaling factor: 1.0
           -------------------------------------------------
Refinement of some symmetry elements was terminated before convergence was reached.
Some symmetry elements may remain unidentified.
Molecule has no symmetry elements
It seems to be the C1 point group
          |             Thermodynamic Functions             |
           -------------------------------------------------

c1  symmetry found (for desy threshold:  0.10E+00) used in thermo

          ...................................................
          :                      SETUP                      :
          :.................................................:
          :  # frequencies                           3      :
          :  # imaginary freq.                       0      :
          :  linear?                             false      :
          :  only rotor calc.                    false      :
          :  symmetry                               c1      :
          :  rotational number                       1      :
          :  scaling factor                  1.0000000      :
          :  rotor cutoff                   50.0000000 cm⁻¹ :
          :  imag. cutoff                  -20.0000000 cm⁻¹ :
          :.................................................:

    mode    ω/cm⁻¹     T·S(HO)/kcal·mol⁻¹    T·S(FR)/kcal·mol⁻¹   T·S(vib)
   ------------------------------------------------------------------------
   ------------------------------------------------------------------------

   temp. (K)  partition function   enthalpy   heat capacity  entropy
                                   cal/mol     cal/K/mol   cal/K/mol   J/K/mol
 298.15  VIB   1.01                   19.910      0.346      0.080
         ROT   705.                  888.752      2.981     16.015
         INT   710.                  908.663      3.327     16.095
         TR   0.151E+27             1481.254      4.968     36.014
         TOT                        2389.9164     8.2949    52.1083   218.0213

       T/K    H(0)-H(T)+PV         H(T)/Eh          T*S/Eh         G(T)/Eh
   ------------------------------------------------------------------------
    298.15    0.380857E-02    0.169043E-01    0.247584E-01   -0.785402E-02
   ------------------------------------------------------------------------

         :::::::::::::::::::::::::::::::::::::::::::::::::::::
         ::                  THERMODYNAMIC                  ::
         :::::::::::::::::::::::::::::::::::::::::::::::::::::
         :: total free energy          -6.603009009467 Eh   ::
         ::.................................................::
         :: total energy               -6.595154987599 Eh   ::
         :: zero point energy           0.013095758881 Eh   ::
         :: G(RRHO) w/o ZPVE           -0.020949780749 Eh   ::
         :: G(RRHO) contrib.           -0.007854021868 Eh   ::
         :::::::::::::::::::::::::::::::::::::::::::::::::::::

optimized geometry written to: xtbopt.xyz


           -------------------------------------------------
          | TOTAL ENERGY               -6.595154987599 Eh   |
          | TOTAL ENTHALPY             -6.578250654437 Eh   |
          | TOTAL FREE ENERGY          -6.603009009467 Eh   |
          | GRADIENT NORM               0.000673074098 Eh/α |
          | HOMO-LUMO GAP               1.374661803806 eV   |
           -------------------------------------------------

------------------------------------------------------------------------
 * finished run on 2025/06/07 at 21:26:37.889     
------------------------------------------------------------------------
 total:
 * wall-time:     0 d,  0 h,  0 min,  0.029 sec
 *  cpu-time:     0 d,  0 h,  0 min,  0.029 sec
 * ratio c/w:     0.998 speedup
 SCF:
 * wall-time:     0 d,  0 h,  0 min,  0.002 sec
 *  cpu-time:     0 d,  0 h,  0 min,  0.002 sec
 * ratio c/w:     0.999 speedup
 analytical hessian:
 * wall-time:     0 d,  0 h,  0 min,  0.013 sec
 *  cpu-time:     0 d,  0 h,  0 min,  0.013 sec
 * ratio c/w:     0.996 speedup

