3
 energy: -6.594625322219 gnorm: 0.026587400548 xtb: 6.7.1 (edcfbbe)
C            2.38689624028560        3.94614036461722       -0.39455778952420
O            1.45739974119965        3.53721119906000        0.18907561693246
H            2.71110048851474        5.01498029632277       -0.37065643740826
3
 energy: -6.595023914618 gnorm: 0.008648157924 xtb: 6.7.1 (edcfbbe)
C            2.38549049205438        3.95630810956323       -0.39102610038513
O            1.45279637429293        3.52795795080373        0.19019093421065
H            2.71710960365269        5.01406579963303       -0.37530344382552
3
 energy: -6.595145067470 gnorm: 0.004466099799 xtb: 6.7.1 (edcfbbe)
C            2.38226551696429        3.96605752973045       -0.38625828767555
O            1.45138804532884        3.52102804401330        0.18952545772960
H            2.72174290770686        5.01124628625625       -0.37940578005405
3
 energy: -6.595154180799 gnorm: 0.001544259162 xtb: 6.7.1 (edcfbbe)
C            2.38086411622298        3.96783006634375       -0.38479160312739
O            1.45157687548938        3.51959756308196        0.18903517183032
H            2.72295547828763        5.01090423057428       -0.38038217870293
3
 energy: -6.595154987599 gnorm: 0.000673120927 xtb: 6.7.1 (edcfbbe)
C            2.38002348566126        3.96821262335202       -0.38407898714237
O            1.45165748430106        3.51887691806763        0.18879886229366
H            2.72371550003767        5.01124231858034       -0.38085848515129
