 Entering Gaussian System
 *********************************************
 Gaussian 98:
 frequency output generated by the xtb code
 *********************************************
                         Standard orientation:
 --------------------------------------------------------------------
  Center     Atomic     Atomic              Coordinates (Angstroms)
  Number     Number      Type              X           Y           Z
 --------------------------------------------------------------------
    1          6             0       -0.419998   -1.137397   -0.370110
    2          6             0        0.806904   -0.902549    0.536822
    3          6             0        0.034599    1.009299   -0.227231
    4          8             0        0.944039    0.535635    0.503994
    5          8             0       -0.775057    0.207133   -0.763054
    6          1             0       -0.207275   -1.710784   -1.276569
    7          1             0       -1.279599   -1.580552    0.139987
    8          1             0        1.735581   -1.341093    0.161662
    9          1             0        0.662810   -1.205981    1.577420
   10          1             0       -0.049963    2.083355   -0.390950
 --------------------------------------------------------------------
     1 basis functions        1 primitive gaussians
     1 alpha electrons        1 beta electrons

 Harmonic frequencies (cm**-1), IR intensities (km*mol⁻¹),
 Raman scattering activities (A**4/amu), Raman depolarization ratios,
 reduced masses (AMU), force constants (mDyne/A) and normal coordinates:
                      1                      2                      3
                        a                      a                      a 
 Frequencies --   202.2848               509.5460               711.5513
 Red. masses --     8.4916                 9.8785                12.8897
 Frc consts  --     0.0000                 0.0000                 0.0000
 IR Inten    --     0.0000                49.4140                22.1171
 Raman Activ --     0.0000                 0.0000                 0.0000
 Depolar     --     0.0000                 0.0000                 0.0000
 Atom AN      X      Y      Z        X      Y      Z        X      Y      Z
   1   6    -0.21   0.03   0.27     0.05  -0.01  -0.06     0.28   0.29   0.18
   2   6     0.21  -0.03  -0.27     0.05  -0.01  -0.06     0.32  -0.17   0.26
   3   6    -0.00   0.00  -0.00     0.34  -0.04  -0.45    -0.11  -0.02  -0.08
   4   8    -0.24   0.03   0.32    -0.25   0.03   0.33    -0.25  -0.40  -0.15
   5   8     0.24  -0.03  -0.32    -0.25   0.03   0.33    -0.30   0.30  -0.26
   6   1    -0.24  -0.17   0.15     0.07   0.13  -0.09     0.09   0.08   0.07
   7   1    -0.07   0.21   0.25     0.05  -0.14  -0.08     0.09   0.07   0.06
   8   1     0.04   0.13  -0.30     0.03   0.12  -0.12     0.10  -0.04   0.08
   9   1     0.26  -0.17  -0.10     0.09  -0.14  -0.05     0.10  -0.04   0.08
  10   1     0.00   0.00   0.00     0.27  -0.03  -0.36     0.13   0.02   0.09
                      4                      5                      6
                        a                      a                      a 
 Frequencies --   840.5447               852.5361               918.2075
 Red. masses --     2.7882                12.9122                 4.3722
 Frc consts  --     0.0000                 0.0000                 0.0000
 IR Inten    --     1.8598                 0.8880                 2.0621
 Raman Activ --     0.0000                 0.0000                 0.0000
 Depolar     --     0.0000                 0.0000                 0.0000
 Atom AN      X      Y      Z        X      Y      Z        X      Y      Z
   1   6    -0.14   0.02   0.18    -0.17   0.35  -0.16     0.01  -0.01  -0.01
   2   6    -0.14   0.02   0.18     0.11   0.41   0.05     0.01   0.00  -0.01
   3   6    -0.06   0.01   0.08     0.04  -0.54   0.08    -0.31   0.04   0.41
   4   8     0.08  -0.01  -0.11     0.31  -0.03   0.24     0.07  -0.01  -0.09
   5   8     0.08  -0.01  -0.11    -0.30  -0.15  -0.21     0.07  -0.01  -0.09
   6   1     0.42   0.17   0.05    -0.00   0.03   0.00    -0.06   0.03  -0.04
   7   1    -0.18  -0.20  -0.38     0.01   0.03  -0.00     0.06  -0.04   0.05
   8   1    -0.20   0.05  -0.41    -0.01   0.03  -0.00     0.05   0.06   0.04
   9   1     0.44  -0.09   0.08    -0.01   0.03  -0.01    -0.06  -0.05  -0.03
  10   1     0.01  -0.00  -0.02     0.01  -0.16   0.02     0.50  -0.06  -0.65
                      7                      8                      9
                        a                      a                      a 
 Frequencies --   925.2798               952.8609              1014.6989
 Red. masses --    10.3001                13.9046                 9.0358
 Frc consts  --     0.0000                 0.0000                 0.0000
 IR Inten    --    44.3649                42.5925                 5.6835
 Raman Activ --     0.0000                 0.0000                 0.0000
 Depolar     --     0.0000                 0.0000                 0.0000
 Atom AN      X      Y      Z        X      Y      Z        X      Y      Z
   1   6    -0.00   0.52  -0.05     0.12   0.41   0.06    -0.43  -0.08  -0.32
   2   6     0.08  -0.51   0.11    -0.18   0.35  -0.17     0.42   0.09   0.31
   3   6    -0.12  -0.02  -0.09    -0.01   0.07  -0.01    -0.01   0.11  -0.02
   4   8     0.04   0.31   0.00    -0.25  -0.45  -0.15    -0.15  -0.14  -0.10
   5   8     0.09  -0.28   0.09     0.32  -0.34   0.27     0.17  -0.08   0.13
   6   1    -0.06   0.16  -0.04     0.04   0.08   0.03    -0.21   0.06  -0.17
   7   1    -0.04   0.16  -0.06     0.05   0.08   0.02    -0.21   0.06  -0.17
   8   1    -0.01  -0.18  -0.01    -0.06   0.06  -0.04     0.20   0.14   0.14
   9   1    -0.03  -0.18   0.01    -0.05   0.06  -0.06     0.20   0.14   0.14
  10   1    -0.25  -0.05  -0.19    -0.00   0.01  -0.00    -0.00   0.03  -0.00
                     10                     11                     12
                        a                      a                      a 
 Frequencies --  1071.9997              1116.1942              1135.8209
 Red. masses --     5.4869                 2.5348                 2.2501
 Frc consts  --     0.0000                 0.0000                 0.0000
 IR Inten    --     0.0001                 8.8033                 0.0001
 Raman Activ --     0.0000                 0.0000                 0.0000
 Depolar     --     0.0000                 0.0000                 0.0000
 Atom AN      X      Y      Z        X      Y      Z        X      Y      Z
   1   6    -0.25   0.03   0.33     0.12  -0.01  -0.15    -0.14   0.02   0.18
   2   6     0.25  -0.03  -0.33     0.12  -0.01  -0.15     0.14  -0.02  -0.18
   3   6    -0.00   0.00  -0.00    -0.03   0.00   0.04     0.00  -0.00   0.00
   4   8    -0.10   0.01   0.13    -0.09   0.01   0.12     0.04  -0.00  -0.05
   5   8     0.10  -0.01  -0.13    -0.09   0.01   0.12    -0.04   0.01   0.05
   6   1     0.10   0.36  -0.11     0.19  -0.35   0.22     0.38  -0.15   0.24
   7   1     0.04  -0.38  -0.08    -0.24   0.36  -0.17    -0.32   0.14  -0.32
   8   1     0.02  -0.34   0.19    -0.17  -0.42  -0.05     0.29   0.28   0.25
   9   1    -0.15   0.36  -0.01     0.13   0.43   0.10    -0.35  -0.27  -0.18
  10   1    -0.00   0.00  -0.00     0.10  -0.01  -0.13    -0.00  -0.00  -0.00
                     13                     14                     15
                        a                      a                      a 
 Frequencies --  1151.5012              1232.5652              1242.8358
 Red. masses --     3.6223                 4.1244                 5.3240
 Frc consts  --     0.0000                 0.0000                 0.0000
 IR Inten    --     4.1304                44.5393                 0.7640
 Raman Activ --     0.0000                 0.0000                 0.0000
 Depolar     --     0.0000                 0.0000                 0.0000
 Atom AN      X      Y      Z        X      Y      Z        X      Y      Z
   1   6    -0.02   0.08  -0.02    -0.21   0.23  -0.18    -0.24   0.06  -0.19
   2   6    -0.01  -0.09   0.00    -0.17  -0.30  -0.10     0.22   0.15   0.16
   3   6    -0.07  -0.01  -0.05     0.12   0.02   0.09    -0.03   0.38  -0.06
   4   8    -0.05   0.27  -0.07    -0.02   0.04  -0.02     0.07  -0.10   0.06
   5   8    -0.01  -0.28   0.02    -0.01  -0.04  -0.01    -0.05  -0.12  -0.02
   6   1    -0.03   0.02  -0.02     0.27  -0.24   0.22     0.19  -0.28   0.20
   7   1    -0.02   0.02  -0.03     0.26  -0.23   0.23     0.21  -0.28   0.16
   8   1    -0.02  -0.03  -0.02     0.22   0.33   0.14    -0.16  -0.34  -0.06
   9   1    -0.03  -0.03  -0.01     0.23   0.33   0.13    -0.14  -0.35  -0.10
  10   1     0.72   0.14   0.53     0.01   0.00   0.00    -0.01   0.12  -0.02
                     16                     17                     18
                        a                      a                      a 
 Frequencies --  1353.6865              1420.7940              1444.0061
 Red. masses --    12.3242                 1.8867                 2.1446
 Frc consts  --     0.0000                 0.0000                 0.0000
 IR Inten    --    17.5298                27.7935                38.8262
 Raman Activ --     0.0000                 0.0000                 0.0000
 Depolar     --     0.0000                 0.0000                 0.0000
 Atom AN      X      Y      Z        X      Y      Z        X      Y      Z
   1   6     0.11  -0.00   0.09     0.11   0.15   0.07    -0.12  -0.15  -0.08
   2   6    -0.11  -0.04  -0.08     0.13  -0.11   0.11     0.14  -0.10   0.11
   3   6    -0.04   0.52  -0.08     0.02   0.00   0.02    -0.01   0.07  -0.01
   4   8     0.36  -0.22   0.29    -0.01  -0.02  -0.00     0.04  -0.05   0.04
   5   8    -0.31  -0.34  -0.20    -0.01   0.02  -0.01    -0.03  -0.07  -0.02
   6   1    -0.14   0.08  -0.08    -0.36  -0.30   0.12     0.37   0.28  -0.11
   7   1    -0.11   0.08  -0.12    -0.01  -0.34  -0.34     0.02   0.32   0.35
   8   1     0.09   0.13   0.09    -0.05   0.22  -0.42    -0.06   0.20  -0.43
   9   1     0.12   0.12   0.05    -0.40   0.26   0.04    -0.41   0.24   0.03
  10   1    -0.01   0.16  -0.02    -0.01  -0.00  -0.01    -0.00   0.03  -0.00
                     19                     20                     21
                        a                      a                      a 
 Frequencies --  1524.7528              2976.2731              2985.4404
 Red. masses --    13.0127                 2.0151                 2.0538
 Frc consts  --     0.0000                 0.0000                 0.0000
 IR Inten    --   480.6615                 0.0073                18.9893
 Raman Activ --     0.0000                 0.0000                 0.0000
 Depolar     --     0.0000                 0.0000                 0.0000
 Atom AN      X      Y      Z        X      Y      Z        X      Y      Z
   1   6     0.04  -0.01   0.03    -0.13   0.02   0.17     0.13  -0.02  -0.18
   2   6     0.04   0.03   0.02     0.13  -0.01  -0.17     0.13  -0.01  -0.18
   3   6     0.64   0.12   0.47    -0.00   0.00  -0.00     0.00  -0.00  -0.00
   4   8    -0.30   0.14  -0.24     0.00   0.00  -0.00     0.00   0.00  -0.00
   5   8    -0.27  -0.25  -0.18    -0.00   0.00   0.00     0.00  -0.00  -0.00
   6   1    -0.04   0.05  -0.04     0.09  -0.26  -0.40    -0.09   0.27   0.41
   7   1    -0.04   0.05  -0.03     0.37   0.20  -0.21    -0.35  -0.19   0.20
   8   1    -0.03  -0.06  -0.01    -0.40   0.19   0.15    -0.38   0.19   0.15
   9   1    -0.03  -0.07  -0.02    -0.06  -0.14   0.46    -0.06  -0.15   0.47
  10   1    -0.07  -0.01  -0.05     0.00  -0.00   0.00     0.00   0.00  -0.00
                     22                     23                     24
                        a                      a                      a 
 Frequencies --  2992.6226              2993.2627              3011.6805
 Red. masses --     1.5274                 1.5123                 1.9066
 Frc consts  --     0.0000                 0.0000                 0.0000
 IR Inten    --    10.7096                22.7142                74.2849
 Raman Activ --     0.0000                 0.0000                 0.0000
 Depolar     --     0.0000                 0.0000                 0.0000
 Atom AN      X      Y      Z        X      Y      Z        X      Y      Z
   1   6    -0.09  -0.12  -0.04    -0.08  -0.11  -0.04    -0.02  -0.03  -0.01
   2   6    -0.10   0.09  -0.07     0.10  -0.09   0.07     0.02  -0.02   0.02
   3   6    -0.00  -0.00  -0.00     0.00  -0.05   0.01    -0.02   0.28  -0.04
   4   8     0.00   0.01   0.00     0.00  -0.01   0.00     0.01   0.00   0.01
   5   8     0.00  -0.01   0.00    -0.00  -0.01   0.00    -0.01  -0.00  -0.00
   6   1    -0.11   0.24   0.39    -0.11   0.23   0.38    -0.02   0.05   0.08
   7   1     0.41   0.20  -0.26     0.38   0.19  -0.24     0.07   0.04  -0.05
   8   1     0.42  -0.20  -0.19    -0.42   0.20   0.19    -0.08   0.04   0.03
   9   1    -0.08  -0.12   0.43     0.08   0.13  -0.45     0.01   0.02  -0.09
  10   1     0.00   0.00   0.00    -0.01   0.18  -0.03     0.07  -0.93   0.14
