      -----------------------------------------------------------      
     |                   =====================                   |     
     |                           x T B                           |     
     |                   =====================                   |     
     |                         S. Grimme                         |     
     |          Mulliken Center for Theoretical Chemistry        |     
     |                    University of Bonn                     |     
      -----------------------------------------------------------      

   * xtb version 6.7.1 (edcfbbe) compiled by 'conda@afd1a870197c' on 2025-04-11

   xtb is free software: you can redistribute it and/or modify it under
   the terms of the GNU Lesser General Public License as published by
   the Free Software Foundation, either version 3 of the License, or
   (at your option) any later version.
   
   xtb is distributed in the hope that it will be useful,
   but WITHOUT ANY WARRANTY; without even the implied warranty of
   MERCHANTABILITY or FITNESS FOR A PARTICULAR PURPOSE.  See the
   GNU Lesser General Public License for more details.
   
   Cite this work as:
   * C. Bannwarth, E. Caldeweyher, S. Ehlert, A. Hansen, P. Pracht,
     J. Seibert, S. Spicher, S. Grimme, WIREs Comput. Mol. Sci., 2020, 11,
     e01493. DOI: 10.1002/wcms.1493
   
   for GFN2-xTB:
   * C. Bannwarth, S. Ehlert and S. Grimme., J. Chem. Theory Comput., 2019,
     15, 1652-1671. DOI: 10.1021/acs.jctc.8b01176
   for GFN1-xTB:
   * S. Grimme, C. Bannwarth, P. Shushkov, J. Chem. Theory Comput., 2017,
     13, 1989-2009. DOI: 10.1021/acs.jctc.7b00118
   for GFN0-xTB:
   * P. Pracht, E. Caldeweyher, S. Ehlert, S. Grimme, ChemRxiv, 2019, preprint.
     DOI: 10.26434/chemrxiv.8326202.v1
   for GFN-FF:
   * S. Spicher and S. Grimme, Angew. Chem. Int. Ed., 2020, 59, 15665-15673.
     DOI: 10.1002/anie.202004239
   
   for ALPB and GBSA implicit solvation:
   * S. Ehlert, M. Stahn, S. Spicher, S. Grimme, J. Chem. Theory Comput.,
     2021, 17, 4250-4261. DOI: 10.1021/acs.jctc.1c00471
   
   for ddCOSMO and CPCM-X implicit solvation:
   * M. Stahn, S. Ehlert, S. Grimme, J. Phys. Chem. A,
     2023, XX, XXXX-XXXX. DOI: 10.1021/acs.jpca.3c04382
   
   for DFT-D4:
   * E. Caldeweyher, C. Bannwarth and S. Grimme, J. Chem. Phys., 2017,
     147, 034112. DOI: 10.1063/1.4993215
   * E. Caldeweyher, S. Ehlert, A. Hansen, H. Neugebauer, S. Spicher,
     C. Bannwarth and S. Grimme, J. Chem. Phys., 2019, 150, 154122.
     DOI: 10.1063/1.5090222
   * E. Caldeweyher, J.-M. Mewes, S. Ehlert and S. Grimme, Phys. Chem. Chem. Phys.
     2020, 22, 8499-8512. DOI: 10.1039/D0CP00502A
   
   for sTDA-xTB:
   * S. Grimme and C. Bannwarth, J. Chem. Phys., 2016, 145, 054103.
     DOI: 10.1063/1.4959605
   
   in the mass-spec context:
   * V. Asgeirsson, C. Bauer and S. Grimme, Chem. Sci., 2017, 8, 4879.
     DOI: 10.1039/c7sc00601b
   * J. Koopman and S. Grimme, ACS Omega 2019, 4, 12, 15120-15133.
     DOI: 10.1021/acsomega.9b02011
   
   for metadynamics refer to:
   * S. Grimme, J. Chem. Theory Comput., 2019, 155, 2847-2862
     DOI: 10.1021/acs.jctc.9b00143
   
   for SPH calculations refer to:
   * S. Spicher and S. Grimme, J. Chem. Theory Comput., 2021, 17, 1701-1714
     DOI: 10.1021/acs.jctc.0c01306
   
   for ONIOM refer to:
   * C. Plett, A. Katbashev, S. Ehlert, S. Grimme, M. Bursch,
     Phys. Chem. Chem. Phys., 2023, 25, 17860-17868. DOI: 10.1039/D3CP02178E
   
   for DIPRO refer to:
   * J. Kohn, N. Gildemeister, S. Grimme, D. Fazzi, A. Hansen,
     J. Chem. Phys., 2023, just accepted.
   
   for PTB refer to:
   * S. Grimme, M. Mueller, A. Hansen, J. Chem. Phys., 2023, 158, 124111.
     DOI: 10.1063/5.0137838
   
   with help from (in alphabetical order)
   P. Atkinson, C. Bannwarth, F. Bohle, G. Brandenburg, E. Caldeweyher
   M. Checinski, S. Dohm, S. Ehlert, S. Ehrlich, I. Gerasimov, C. Hölzer
   A. Katbashev, J. Kohn, J. Koopman, C. Lavigne, S. Lehtola, F. März, M. Müller,
   F. Musil, H. Neugebauer, J. Pisarek, C. Plett, P. Pracht, F. Pultar,
   J. Seibert, P. Shushkov, S. Spicher, M. Stahn, M. Steiner, T. Strunk,
   J. Stückrath, T. Rose, and J. Unsleber
   
 * started run on 2025/06/07 at 21:26:37.983     
   ID    Z sym.   atoms
    1    6 C      1-3
    2    8 O      4, 5
    3    1 H      6-10

           -------------------------------------------------
          |                Calculation Setup                |
           -------------------------------------------------

          program call               : xtb xtbin.xyz --bhess --gfn2 --etemp 300
          coordinate file            : xtbin.xyz
          omp threads                :                     1


           -------------------------------------------------
          |                 G F N 2 - x T B                 |
           -------------------------------------------------

        Reference                      10.1021/acs.jctc.8b01176
      * Hamiltonian:
        H0-scaling (s, p, d)           1.850000    2.230000    2.230000
        zeta-weighting                 0.500000
      * Dispersion:
        s8                             2.700000
        a1                             0.520000
        a2                             5.000000
        s9                             5.000000
      * Repulsion:
        kExp                           1.500000    1.000000
        rExp                           1.000000
      * Coulomb:
        alpha                          2.000000
        third order                    shell-resolved
        anisotropic                    true
        a3                             3.000000
        a5                             4.000000
        cn-shift                       1.200000
        cn-exp                         4.000000
        max-rad                        5.000000


          ...................................................
          :                      SETUP                      :
          :.................................................:
          :  # basis functions                  25          :
          :  # atomic orbitals                  25          :
          :  # shells                           15          :
          :  # electrons                        28          :
          :  max. iterations                   250          :
          :  Hamiltonian                  GFN2-xTB          :
          :  restarted?                      false          :
          :  GBSA solvation                  false          :
          :  PC potential                    false          :
          :  electronic temp.          300.0000000     K    :
          :  accuracy                    1.0000000          :
          :  -> integral cutoff          0.2500000E+02      :
          :  -> integral neglect         0.1000000E-07      :
          :  -> SCF convergence          0.1000000E-05 Eh   :
          :  -> wf. convergence          0.1000000E-03 e    :
          :  Broyden damping             0.4000000          :
          :  net charge                          1          :
          :  unpaired electrons                  0          :
          ...................................................

 iter      E             dE          RMSdq      gap      omega  full diag
   1    -16.7743485 -0.167743E+02  0.507E+00    5.46       0.0  T
   2    -16.7930324 -0.186838E-01  0.293E+00    4.16       1.0  T
   3    -16.7926504  0.381933E-03  0.112E+00    4.29       1.0  T
   4    -16.7947895 -0.213910E-02  0.129E-01    3.94       1.0  T
   5    -16.7948334 -0.438474E-04  0.493E-02    4.03       1.0  T
   6    -16.7948369 -0.347692E-05  0.189E-02    4.02       1.7  T
   7    -16.7948381 -0.121938E-05  0.666E-03    4.02       4.7  T
   8    -16.7948383 -0.236346E-06  0.166E-03    4.02      19.1  T
   9    -16.7948383 -0.167281E-07  0.178E-04    4.02     177.2  T
  10    -16.7948383 -0.219202E-10  0.604E-05    4.02     523.6  T

   *** convergence criteria satisfied after 10 iterations ***

         #    Occupation            Energy/Eh            Energy/eV
      -------------------------------------------------------------
         1        2.0000           -1.0328542             -28.1054
       ...           ...                  ...                  ...
         8        2.0000           -0.7830911             -21.3090
         9        2.0000           -0.7792269             -21.2038
        10        2.0000           -0.7595645             -20.6688
        11        2.0000           -0.7584881             -20.6395
        12        2.0000           -0.7459535             -20.2984
        13        2.0000           -0.7210776             -19.6215
        14        2.0000           -0.6620037             -18.0140 (HOMO)
        15                         -0.5141958             -13.9920 (LUMO)
        16                         -0.3095897              -8.4244
        17                         -0.2322374              -6.3195
        18                         -0.1448713              -3.9421
        19                         -0.0946035              -2.5743
       ...                                ...                  ...
        25                          0.1979277               5.3859
      -------------------------------------------------------------
                  HL-Gap            0.1478080 Eh            4.0221 eV
             Fermi-level           -0.5880997 Eh          -16.0030 eV

 SCC (total)                   0 d,  0 h,  0 min,  0.006 sec
 SCC setup                      ...        0 min,  0.000 sec (  1.630%)
 Dispersion                     ...        0 min,  0.000 sec (  0.810%)
 classical contributions        ...        0 min,  0.000 sec (  0.292%)
 integral evaluation            ...        0 min,  0.001 sec ( 13.878%)
 iterations                     ...        0 min,  0.003 sec ( 51.837%)
 molecular gradient             ...        0 min,  0.002 sec ( 29.704%)
 printout                       ...        0 min,  0.000 sec (  1.660%)

         :::::::::::::::::::::::::::::::::::::::::::::::::::::
         ::                     SUMMARY                     ::
         :::::::::::::::::::::::::::::::::::::::::::::::::::::
         :: total energy             -16.635277777151 Eh    ::
         :: gradient norm              0.027561781381 Eh/a0 ::
         :: HOMO-LUMO gap              4.022060162846 eV    ::
         ::.................................................::
         :: SCC energy               -16.794836624374 Eh    ::
         :: -> isotropic ES            0.126792576928 Eh    ::
         :: -> anisotropic ES         -0.000761686586 Eh    ::
         :: -> anisotropic XC          0.004133152650 Eh    ::
         :: -> dispersion             -0.003787670416 Eh    ::
         :: repulsion energy           0.159558847223 Eh    ::
         :: add. restraining           0.000000000000 Eh    ::
         :: total charge               1.000000000000 e     ::
         :::::::::::::::::::::::::::::::::::::::::::::::::::::

metadynamics with 1 initial structures loaded
           -------------------------------------------------
          |           Optimal kpush determination           |
           -------------------------------------------------
      ----------------------------------------------------------- 
     |                   =====================                   |
     |                        A N C O P T                        |
     |                   =====================                   |
     |               Approximate Normal Coordinate               |
     |                Rational Function Optimizer                |
      ----------------------------------------------------------- 
target rmsd / Å         0.100000
unbiased initial rmsd   0.013033

iter. min.        max.        rmsd       kpush
final kpush: -0.000000
           -------------------------------------------------
          |            Biased Numerical Hessian             |
           -------------------------------------------------
kpush                :  -0.00000
alpha                :   1.00000
step length          :   0.00500
SCC accuracy         :   0.30000
Hessian scale factor :   1.00000
frozen atoms in %    :   0.00000    0
RMS gradient         :   0.00044
estimated CPU  time      0.01 min
estimated wall time      0.01 min

writing file <hessian>.

 projected vibrational frequencies (cm⁻¹)
eigval :       -0.00    -0.00    -0.00     0.00     0.00     0.00
eigval :      202.28   509.55   711.55   840.54   852.54   918.21
eigval :      925.28   952.86  1014.70  1072.00  1116.19  1135.82
eigval :     1151.50  1232.57  1242.84  1353.69  1420.79  1444.01
eigval :     1524.75  2976.27  2985.44  2992.62  2993.26  3011.68
           -------------------------------------------------
          |                Property Printout                |
           -------------------------------------------------

    * Orbital Energies and Occupations

         #    Occupation            Energy/Eh            Energy/eV
      -------------------------------------------------------------
         1        2.0000           -1.0339481             -28.1352
         2        2.0000           -1.0014852             -27.2518
         3        2.0000           -0.9447361             -25.7076
         4        2.0000           -0.9123899             -24.8274
         5        2.0000           -0.8883577             -24.1734
         6        2.0000           -0.8736879             -23.7743
         7        2.0000           -0.8322174             -22.6458
         8        2.0000           -0.7855019             -21.3746
         9        2.0000           -0.7794148             -21.2090
        10        2.0000           -0.7603132             -20.6892
        11        2.0000           -0.7590452             -20.6547
        12        2.0000           -0.7418733             -20.1874
        13        2.0000           -0.7179118             -19.5354
        14        2.0000           -0.6589314             -17.9304 (HOMO)
        15                         -0.5145159             -14.0007 (LUMO)
        16                         -0.2801116              -7.6222
        17                         -0.2174222              -5.9164
        18                         -0.1567789              -4.2662
        19                         -0.1011469              -2.7523
        20                         -0.0853537              -2.3226
        21                         -0.0402821              -1.0961
        22                         -0.0088843              -0.2418
        23                          0.0599752               1.6320
        24                          0.1505546               4.0968
        25                          0.2023629               5.5066
      -------------------------------------------------------------
                  HL-Gap            0.1444155 Eh            3.9297 eV
             Fermi-level           -0.5867236 Eh          -15.9656 eV

     #   Z          covCN         q      C6AA      α(0)
     1   6 C        3.812     0.030    20.067     6.376
     2   6 C        3.812     0.030    20.067     6.376
     3   6 C        2.921     0.318    21.606     7.622
     4   8 O        1.704    -0.076    15.496     5.315
     5   8 O        1.704    -0.076    15.496     5.315
     6   1 H        0.924     0.146     1.420     1.864
     7   1 H        0.924     0.146     1.419     1.863
     8   1 H        0.924     0.146     1.419     1.863
     9   1 H        0.924     0.146     1.420     1.864
    10   1 H        0.925     0.190     1.149     1.676

 Mol. C6AA /au·bohr⁶  :        741.967037
 Mol. C8AA /au·bohr⁸  :      16512.389834
 Mol. α(0) /au        :         40.134006


Wiberg/Mayer (AO) data.
largest (>0.10) Wiberg bond orders for each atom

 ---------------------------------------------------------------------------
     #   Z sym  total        # sym  WBO       # sym  WBO       # sym  WBO
 ---------------------------------------------------------------------------
     1   6 C    3.864 --     2 C    1.002     7 H    0.950     6 H    0.950
                             5 O    0.901
     2   6 C    3.864 --     1 C    1.002     8 H    0.950     9 H    0.950
                             4 O    0.901
     3   6 C    3.874 --     5 O    1.440     4 O    1.440    10 H    0.907
     4   8 O    2.553 --     3 C    1.440     2 C    0.901     5 O    0.181
     5   8 O    2.553 --     3 C    1.440     1 C    0.901     4 O    0.181
     6   1 H    0.979 --     1 C    0.950
     7   1 H    0.979 --     1 C    0.950
     8   1 H    0.979 --     2 C    0.950
     9   1 H    0.979 --     2 C    0.950
    10   1 H    0.964 --     3 C    0.907
 ---------------------------------------------------------------------------

Topologies differ in total number of bonds
Writing topology from bond orders to xtbtopo.mol

molecular dipole:
                 x           y           z       tot (Debye)
 q only:        0.252      -0.474      -0.065
   full:        0.238      -0.297      -0.092       0.994
molecular quadrupole (traceless):
                xx          xy          yy          xz          yz          zz
 q only:       -3.095      -0.812       6.508       0.769      -1.400      -3.413
  q+dip:       -2.987      -0.926       5.231      -1.072      -1.203      -2.244
   full:       -3.220      -0.973       5.718      -1.002      -1.315      -2.498

           -------------------------------------------------
          |                Geometry Summary                 |
           -------------------------------------------------

      molecular mass/u    :       73.0707213
   center of mass at/Å    :        0.1181676      -0.0585711      -0.0637526
  moments of inertia/u·Å² :        0.5915734E+02   0.6088395E+02   0.1136439E+03
rotational constants/cm⁻¹ :        0.2849627E+00   0.2768814E+00   0.1483373E+00

 * 10 selected distances

     #   Z          #   Z                                           value/Å
     1   6 C        2   6 C                                       1.5436867 (max)
     2   6 C        4   8 O                                       1.4450804
     3   6 C        4   8 O                                       1.2594155
     1   6 C        5   8 O                                       1.4450719
     3   6 C        5   8 O                                       1.2594127
     1   6 C        6   1 H                                       1.0934773
     1   6 C        7   1 H                                       1.0933883
     2   6 C        8   1 H                                       1.0933924
     2   6 C        9   1 H                                       1.0934701
     3   6 C       10   1 H                                       1.0897481 (min)

 * 3 distinct bonds (by element types)

   Z      Z             #   av. dist./Å        max./Å        min./Å
   1 H    6 C           5     1.0926952     1.0934773     1.0897481
   6 C    6 C           1     1.5436867     1.5436867     1.5436867
   6 C    8 O           4     1.3522451     1.4450804     1.2594127

           -------------------------------------------------
          |               Frequency Printout                |
           -------------------------------------------------
 projected vibrational frequencies (cm⁻¹)
eigval :       -0.00    -0.00    -0.00     0.00     0.00     0.00
eigval :      202.28   509.55   711.55   840.54   852.54   918.21
eigval :      925.28   952.86  1014.70  1072.00  1116.19  1135.82
eigval :     1151.50  1232.57  1242.84  1353.69  1420.79  1444.01
eigval :     1524.75  2976.27  2985.44  2992.62  2993.26  3011.68
 reduced masses (amu)
   1: 12.58   2: 12.20   3: 11.98   4: 11.50   5: 13.50   6: 11.16   7:  8.49   8:  9.88
   9: 12.89  10:  2.79  11: 12.91  12:  4.37  13: 10.30  14: 13.90  15:  9.04  16:  5.49
  17:  2.53  18:  2.25  19:  3.62  20:  4.12  21:  5.32  22: 12.32  23:  1.89  24:  2.14
  25: 13.01  26:  2.02  27:  2.05  28:  1.53  29:  1.51  30:  1.91
 IR intensities (km·mol⁻¹)
   1:  9.55   2: 10.90   3:  3.05   4:  6.49   5:  9.27   6:  1.04   7:  0.00   8: 49.41
   9: 22.12  10:  1.86  11:  0.89  12:  2.06  13: 44.36  14: 42.59  15:  5.68  16:  0.00
  17:  8.80  18:  0.00  19:  4.13  20: 44.54  21:  0.76  22: 17.53  23: 27.79  24: 38.83
  25:480.66  26:  0.01  27: 18.99  28: 10.71  29: 22.71  30: 74.28
 Raman intensities (Ä⁴*amu⁻¹)
   1:  0.00   2:  0.00   3:  0.00   4:  0.00   5:  0.00   6:  0.00   7:  0.00   8:  0.00
   9:  0.00  10:  0.00  11:  0.00  12:  0.00  13:  0.00  14:  0.00  15:  0.00  16:  0.00
  17:  0.00  18:  0.00  19:  0.00  20:  0.00  21:  0.00  22:  0.00  23:  0.00  24:  0.00
Molecule has the following symmetry elements: (C2) 2*(sigma) 
It seems to be the C2v point group
  25:  0.00  26:  0.00  27:  0.00  28:  0.00  29:  0.00  30:  0.00
 output can be read by thermo (or use thermo option).
 writing <g98.out> molden fake output.
 recommended (thermochemical) frequency scaling factor: 1.0
           -------------------------------------------------
          |             Thermodynamic Functions             |
           -------------------------------------------------

c2v symmetry found (for desy threshold:  0.10E+00) used in thermo

          ...................................................
          :                      SETUP                      :
          :.................................................:
          :  # frequencies                          24      :
          :  # imaginary freq.                       0      :
          :  linear?                             false      :
          :  only rotor calc.                    false      :
          :  symmetry                              c2v      :
          :  rotational number                       2      :
          :  scaling factor                  1.0000000      :
          :  rotor cutoff                   50.0000000 cm⁻¹ :
          :  imag. cutoff                  -20.0000000 cm⁻¹ :
          :.................................................:

    mode    ω/cm⁻¹     T·S(HO)/kcal·mol⁻¹    T·S(FR)/kcal·mol⁻¹   T·S(vib)
   ------------------------------------------------------------------------
       1    202.28    -0.62976 ( 99.63%)    -0.64219 (  0.37%)    -0.62980
   ------------------------------------------------------------------------

   temp. (K)  partition function   enthalpy   heat capacity  entropy
                                   cal/mol     cal/K/mol   cal/K/mol   J/K/mol
 298.15  VIB   2.01                  841.720      8.566      4.210
         ROT  0.244E+05              888.752      2.981     23.060
         INT  0.491E+05             1730.473     11.547     27.270
         TR   0.604E+27             1481.254      4.968     38.765
         TOT                        3211.7264    16.5153    66.0348   276.2898

       T/K    H(0)-H(T)+PV         H(T)/Eh          T*S/Eh         G(T)/Eh
   ------------------------------------------------------------------------
    298.15    0.511821E-02    0.838994E-01    0.313753E-01    0.525241E-01
   ------------------------------------------------------------------------

         :::::::::::::::::::::::::::::::::::::::::::::::::::::
         ::                  THERMODYNAMIC                  ::
         :::::::::::::::::::::::::::::::::::::::::::::::::::::
         :: total free energy         -16.583679381245 Eh   ::
         ::.................................................::
         :: total energy              -16.636203500415 Eh   ::
         :: zero point energy           0.078781191667 Eh   ::
         :: G(RRHO) w/o ZPVE           -0.026257072497 Eh   ::
         :: G(RRHO) contrib.            0.052524119170 Eh   ::
         :::::::::::::::::::::::::::::::::::::::::::::::::::::

optimized geometry written to: xtbopt.xyz


           -------------------------------------------------
          | TOTAL ENERGY              -16.636203500415 Eh   |
          | TOTAL ENTHALPY            -16.552304096903 Eh   |
          | TOTAL FREE ENERGY         -16.583679381245 Eh   |
          | GRADIENT NORM               0.000438414598 Eh/α |
          | HOMO-LUMO GAP               3.929745758592 eV   |
           -------------------------------------------------

------------------------------------------------------------------------
 * finished run on 2025/06/07 at 21:26:38.347     
------------------------------------------------------------------------
 total:
 * wall-time:     0 d,  0 h,  0 min,  0.364 sec
 *  cpu-time:     0 d,  0 h,  0 min,  0.364 sec
 * ratio c/w:     1.000 speedup
 SCF:
 * wall-time:     0 d,  0 h,  0 min,  0.006 sec
 *  cpu-time:     0 d,  0 h,  0 min,  0.006 sec
 * ratio c/w:     1.000 speedup
 analytical hessian:
 * wall-time:     0 d,  0 h,  0 min,  0.303 sec
 *  cpu-time:     0 d,  0 h,  0 min,  0.303 sec
 * ratio c/w:     1.000 speedup

