10
 energy: -16.635277777169 gnorm: 0.027561846968 xtb: 6.7.1 (edcfbbe)
C           -0.41083159810825       -1.15715747873973       -0.36146629703618
C            0.80116947903477       -0.92481283886109        0.53472703393028
C            0.03399358111591        1.01419964780441       -0.22783435068340
O            0.94389853135718        0.53690798951823        0.49955711638683
O           -0.77549498603764        0.20979807158127       -0.75938642750912
H           -0.19937593009383       -1.69956772447568       -1.27649482284505
H           -1.27509281608528       -1.57322395915008        0.14443395159610
H            1.73004551635617       -1.33646413202999        0.15548113777242
H            0.65367663127809       -1.19689121868633        1.57418030443044
H           -0.04992640881711        2.08428801303900       -0.39122753604233
10
 energy: -16.635941547011 gnorm: 0.014827953156 xtb: 6.7.1 (edcfbbe)
C           -0.41576248684369       -1.14890432379704       -0.36581734002777
C            0.80459228509899       -0.91509951444501        0.53623002072381
C            0.03418392551163        1.01167189307511       -0.22732407730074
O            0.94497848605102        0.53804177482335        0.50162087403113
O           -0.77669225026659        0.21008976266381       -0.76135767245248
H           -0.20537522759779       -1.70540134324527       -1.28006105681175
H           -1.28082466773066       -1.57848044384246        0.14083873242020
H            1.73648842449238       -1.33910786085086        0.16016176443434
H            0.66023144026000       -1.20032330108950        1.57913807881598
H           -0.04975792897528        2.08458972670788       -0.39145921383273
10
 energy: -16.636186879833 gnorm: 0.004190133226 xtb: 6.7.1 (edcfbbe)
C           -0.41969428058408       -1.13841528654390       -0.36973160235411
C            0.80676757736255       -0.90363838559825        0.53676482841830
C            0.03451784453212        1.00911104055495       -0.22707673417116
O            0.94518727719590        0.53770891196611        0.50337329654920
O           -0.77662741911548        0.20914587089692       -0.76294679690152
H           -0.20765082719999       -1.71075965058039       -1.27857715728382
H           -1.28090027083537       -1.58236131870304        0.13960407902342
H            1.73715691753667       -1.34234802130416        0.16245880561660
H            0.66317166764072       -1.20535995328671        1.57931333681523
H           -0.04986648653302        2.08399316259849       -0.39121194571214
10
 energy: -16.636199677626 gnorm: 0.002216357866 xtb: 6.7.1 (edcfbbe)
C           -0.41993297944443       -1.13756275236661       -0.37001361617101
C            0.80686900268969       -0.90272928221309        0.53678497595385
C            0.03437218177677        1.00891882662326       -0.22682652428424
O            0.94461261441073        0.53656259169438        0.50376964016459
O           -0.77598870236049        0.20801994361554       -0.76281581905852
H           -0.20752741043793       -1.71059658554230       -1.27755783479614
H           -1.28015730132439       -1.58159883077502        0.13957992893653
H            1.73630141989491       -1.34166409039634        0.16218051143241
H            0.66313876477589       -1.20565477788977        1.57827979694096
H           -0.04962558998073        2.08338132724995       -0.39141094911845
10
 energy: -16.636203500407 gnorm: 0.000438806165 xtb: 6.7.1 (edcfbbe)
C           -0.41999103240406       -1.13739814746435       -0.37011314930558
C            0.80690672787204       -0.90254529353786        0.53682359499925
C            0.03459486287339        1.00929953824091       -0.22722888573930
O            0.94403456702617        0.53563945193588        0.50399796035060
O           -0.77505564895229        0.20713052132888       -0.76305628892335
H           -0.20726120643167       -1.71078295606114       -1.27657229720325
H           -1.27959100985579       -1.58055831638258        0.13997964185360
H            1.73558712955372       -1.34108394084810        0.16166599179857
H            0.66281032253707       -1.20597970758254        1.57741975900165
H           -0.04997271221858        2.08335522037091       -0.39094621683219
