10
 energy: -16.635277777151 gnorm: 0.027561781381 xtb: 6.7.1 (edcfbbe)
C           -0.41999827973359       -1.13739659434167       -0.37010969812324
C            0.80690387601821       -0.90254858155375        0.53682235359804
C            0.03459935436606        1.00929896050219       -0.22723076805643
O            0.94403913089520        0.53563538860746        0.50399373017726
O           -0.77505722798123        0.20713324773710       -0.76305394497390
H           -0.20727462014537       -1.71078409883358       -1.27656858783590
H           -1.27959879698241       -1.58055137212764        0.13998686706243
H            1.73558067195068       -1.34109274618321        0.16166227408840
H            0.66280951428442       -1.20598042494288        1.57741955017680
H           -0.04996316847116        2.08335479967296       -0.39094967853235
