 Entering Gaussian System
 *********************************************
 Gaussian 98:
 frequency output generated by the xtb code
 *********************************************
                         Standard orientation:
 --------------------------------------------------------------------
  Center     Atomic     Atomic              Coordinates (Angstroms)
  Number     Number      Type              X           Y           Z
 --------------------------------------------------------------------
    1          6             0       -4.443176    6.416869    0.231206
    2          8             0       -3.416846    5.838585    0.166482
    3          1             0       -4.592124    7.500129    0.333275
 --------------------------------------------------------------------
     1 basis functions        1 primitive gaussians
     1 alpha electrons        1 beta electrons

 Harmonic frequencies (cm**-1), IR intensities (km*mol⁻¹),
 Raman scattering activities (A**4/amu), Raman depolarization ratios,
 reduced masses (AMU), force constants (mDyne/A) and normal coordinates:
                      1                      2                      3
                        a                      a                      a 
 Frequencies --  1044.6270              1948.9108              2754.7822
 Red. masses --     3.6290                13.5598                 1.7541
 Frc consts  --     0.0000                 0.0000                 0.0000
 IR Inten    --    35.5649                76.8167                51.1196
 Raman Activ --     0.0000                 0.0000                 0.0000
 Depolar     --     0.0000                 0.0000                 0.0000
 Atom AN      X      Y      Z        X      Y      Z        X      Y      Z
   1   6     0.23   0.31   0.03    -0.67   0.33   0.04     0.05  -0.25  -0.02
   2   8     0.02  -0.25  -0.02     0.57  -0.31  -0.04     0.01  -0.02  -0.00
   3   1    -0.88  -0.10   0.00     0.03   0.12   0.01    -0.18   0.94   0.09
