      -----------------------------------------------------------      
     |                   =====================                   |     
     |                           x T B                           |     
     |                   =====================                   |     
     |                         S. Grimme                         |     
     |          Mulliken Center for Theoretical Chemistry        |     
     |                    University of Bonn                     |     
      -----------------------------------------------------------      

   * xtb version 6.7.1 (edcfbbe) compiled by 'conda@afd1a870197c' on 2025-04-11

   xtb is free software: you can redistribute it and/or modify it under
   the terms of the GNU Lesser General Public License as published by
   the Free Software Foundation, either version 3 of the License, or
   (at your option) any later version.
   
   xtb is distributed in the hope that it will be useful,
   but WITHOUT ANY WARRANTY; without even the implied warranty of
   MERCHANTABILITY or FITNESS FOR A PARTICULAR PURPOSE.  See the
   GNU Lesser General Public License for more details.
   
   Cite this work as:
   * C. Bannwarth, E. Caldeweyher, S. Ehlert, A. Hansen, P. Pracht,
     J. Seibert, S. Spicher, S. Grimme, WIREs Comput. Mol. Sci., 2020, 11,
     e01493. DOI: 10.1002/wcms.1493
   
   for GFN2-xTB:
   * C. Bannwarth, S. Ehlert and S. Grimme., J. Chem. Theory Comput., 2019,
     15, 1652-1671. DOI: 10.1021/acs.jctc.8b01176
   for GFN1-xTB:
   * S. Grimme, C. Bannwarth, P. Shushkov, J. Chem. Theory Comput., 2017,
     13, 1989-2009. DOI: 10.1021/acs.jctc.7b00118
   for GFN0-xTB:
   * P. Pracht, E. Caldeweyher, S. Ehlert, S. Grimme, ChemRxiv, 2019, preprint.
     DOI: 10.26434/chemrxiv.8326202.v1
   for GFN-FF:
   * S. Spicher and S. Grimme, Angew. Chem. Int. Ed., 2020, 59, 15665-15673.
     DOI: 10.1002/anie.202004239
   
   for ALPB and GBSA implicit solvation:
   * S. Ehlert, M. Stahn, S. Spicher, S. Grimme, J. Chem. Theory Comput.,
     2021, 17, 4250-4261. DOI: 10.1021/acs.jctc.1c00471
   
   for ddCOSMO and CPCM-X implicit solvation:
   * M. Stahn, S. Ehlert, S. Grimme, J. Phys. Chem. A,
     2023, XX, XXXX-XXXX. DOI: 10.1021/acs.jpca.3c04382
   
   for DFT-D4:
   * E. Caldeweyher, C. Bannwarth and S. Grimme, J. Chem. Phys., 2017,
     147, 034112. DOI: 10.1063/1.4993215
   * E. Caldeweyher, S. Ehlert, A. Hansen, H. Neugebauer, S. Spicher,
     C. Bannwarth and S. Grimme, J. Chem. Phys., 2019, 150, 154122.
     DOI: 10.1063/1.5090222
   * E. Caldeweyher, J.-M. Mewes, S. Ehlert and S. Grimme, Phys. Chem. Chem. Phys.
     2020, 22, 8499-8512. DOI: 10.1039/D0CP00502A
   
   for sTDA-xTB:
   * S. Grimme and C. Bannwarth, J. Chem. Phys., 2016, 145, 054103.
     DOI: 10.1063/1.4959605
   
   in the mass-spec context:
   * V. Asgeirsson, C. Bauer and S. Grimme, Chem. Sci., 2017, 8, 4879.
     DOI: 10.1039/c7sc00601b
   * J. Koopman and S. Grimme, ACS Omega 2019, 4, 12, 15120-15133.
     DOI: 10.1021/acsomega.9b02011
   
   for metadynamics refer to:
   * S. Grimme, J. Chem. Theory Comput., 2019, 155, 2847-2862
     DOI: 10.1021/acs.jctc.9b00143
   
   for SPH calculations refer to:
   * S. Spicher and S. Grimme, J. Chem. Theory Comput., 2021, 17, 1701-1714
     DOI: 10.1021/acs.jctc.0c01306
   
   for ONIOM refer to:
   * C. Plett, A. Katbashev, S. Ehlert, S. Grimme, M. Bursch,
     Phys. Chem. Chem. Phys., 2023, 25, 17860-17868. DOI: 10.1039/D3CP02178E
   
   for DIPRO refer to:
   * J. Kohn, N. Gildemeister, S. Grimme, D. Fazzi, A. Hansen,
     J. Chem. Phys., 2023, just accepted.
   
   for PTB refer to:
   * S. Grimme, M. Mueller, A. Hansen, J. Chem. Phys., 2023, 158, 124111.
     DOI: 10.1063/5.0137838
   
   with help from (in alphabetical order)
   P. Atkinson, C. Bannwarth, F. Bohle, G. Brandenburg, E. Caldeweyher
   M. Checinski, S. Dohm, S. Ehlert, S. Ehrlich, I. Gerasimov, C. Hölzer
   A. Katbashev, J. Kohn, J. Koopman, C. Lavigne, S. Lehtola, F. März, M. Müller,
   F. Musil, H. Neugebauer, J. Pisarek, C. Plett, P. Pracht, F. Pultar,
   J. Seibert, P. Shushkov, S. Spicher, M. Stahn, M. Steiner, T. Strunk,
   J. Stückrath, T. Rose, and J. Unsleber
   
 * started run on 2025/06/07 at 21:26:37.861     
   ID    Z sym.   atoms
    1    6 C      1
    2    8 O      2
    3    1 H      3

           -------------------------------------------------
          |                Calculation Setup                |
           -------------------------------------------------

          program call               : xtb xtbin.xyz --bhess --gfn2 --etemp 300
          coordinate file            : xtbin.xyz
          omp threads                :                     1


           -------------------------------------------------
          |                 G F N 2 - x T B                 |
           -------------------------------------------------

        Reference                      10.1021/acs.jctc.8b01176
      * Hamiltonian:
        H0-scaling (s, p, d)           1.850000    2.230000    2.230000
        zeta-weighting                 0.500000
      * Dispersion:
        s8                             2.700000
        a1                             0.520000
        a2                             5.000000
        s9                             5.000000
      * Repulsion:
        kExp                           1.500000    1.000000
        rExp                           1.000000
      * Coulomb:
        alpha                          2.000000
        third order                    shell-resolved
        anisotropic                    true
        a3                             3.000000
        a5                             4.000000
        cn-shift                       1.200000
        cn-exp                         4.000000
        max-rad                        5.000000


          ...................................................
          :                      SETUP                      :
          :.................................................:
          :  # basis functions                   9          :
          :  # atomic orbitals                   9          :
          :  # shells                            5          :
          :  # electrons                        11          :
          :  max. iterations                   250          :
          :  Hamiltonian                  GFN2-xTB          :
          :  restarted?                      false          :
          :  GBSA solvation                  false          :
          :  PC potential                    false          :
          :  electronic temp.          300.0000000     K    :
          :  accuracy                    1.0000000          :
          :  -> integral cutoff          0.2500000E+02      :
          :  -> integral neglect         0.1000000E-07      :
          :  -> SCF convergence          0.1000000E-05 Eh   :
          :  -> wf. convergence          0.1000000E-03 e    :
          :  Broyden damping             0.4000000          :
          :  net charge                          0          :
          :  unpaired electrons                  1          :
          ...................................................

 iter      E             dE          RMSdq      gap      omega  full diag
   1     -6.6555380 -0.665554E+01  0.694E+00    1.67       0.0  T
   2     -6.6571199 -0.158185E-02  0.405E+00    1.59       1.0  T
   3     -6.6566752  0.444721E-03  0.818E-01    1.54       1.0  T
   4     -6.6573945 -0.719374E-03  0.203E-01    1.53       1.0  T
   5     -6.6574311 -0.366034E-04  0.108E-01    1.55       1.0  T
   6     -6.6574412 -0.100969E-04  0.682E-02    1.54       1.0  T
   7     -6.6574553 -0.141052E-04  0.258E-03    1.54      22.4  T
   8     -6.6574553 -0.132598E-08  0.103E-03    1.54      55.9  T
   9     -6.6574553  0.300293E-11  0.156E-04    1.54     369.1  T
  10     -6.6574553 -0.210880E-10  0.108E-04    1.54     535.3  T

   *** convergence criteria satisfied after 10 iterations ***

         #    Occupation            Energy/Eh            Energy/eV
      -------------------------------------------------------------
         1        2.0000           -0.7541867             -20.5225
         2        2.0000           -0.6314946             -17.1838
         3        2.0000           -0.5829108             -15.8618
         4        2.0000           -0.5726809             -15.5834
         5        2.0000           -0.5176699             -14.0865
         6        1.0000           -0.3361900              -9.1482 (HOMO)
         7                         -0.2794917              -7.6054 (LUMO)
         8                          0.1355403               3.6882
         9                          0.6534920              17.7824
      -------------------------------------------------------------
                  HL-Gap            0.0566983 Eh            1.5428 eV
             Fermi-level           -0.3673854 Eh           -9.9971 eV

 SCC (total)                   0 d,  0 h,  0 min,  0.002 sec
 SCC setup                      ...        0 min,  0.000 sec (  4.862%)
 Dispersion                     ...        0 min,  0.000 sec (  0.977%)
 classical contributions        ...        0 min,  0.000 sec (  0.613%)
 integral evaluation            ...        0 min,  0.000 sec (  9.301%)
 iterations                     ...        0 min,  0.001 sec ( 64.859%)
 molecular gradient             ...        0 min,  0.000 sec ( 13.667%)
 printout                       ...        0 min,  0.000 sec (  5.069%)

         :::::::::::::::::::::::::::::::::::::::::::::::::::::
         ::                     SUMMARY                     ::
         :::::::::::::::::::::::::::::::::::::::::::::::::::::
         :: total energy              -6.594631374134 Eh    ::
         :: gradient norm              0.026482976987 Eh/a0 ::
         :: HOMO-LUMO gap              1.542840335081 eV    ::
         ::.................................................::
         :: SCC energy                -6.657455344320 Eh    ::
         :: -> isotropic ES            0.008594550122 Eh    ::
         :: -> anisotropic ES          0.000319554314 Eh    ::
         :: -> anisotropic XC          0.002882305008 Eh    ::
         :: -> dispersion             -0.000444088251 Eh    ::
         :: repulsion energy           0.062823970186 Eh    ::
         :: add. restraining           0.000000000000 Eh    ::
         :: total charge               0.000000000000 e     ::
         :::::::::::::::::::::::::::::::::::::::::::::::::::::

metadynamics with 1 initial structures loaded
           -------------------------------------------------
          |           Optimal kpush determination           |
           -------------------------------------------------
      ----------------------------------------------------------- 
     |                   =====================                   |
     |                        A N C O P T                        |
     |                   =====================                   |
     |               Approximate Normal Coordinate               |
     |                Rational Function Optimizer                |
      ----------------------------------------------------------- 
target rmsd / Å         0.100000
unbiased initial rmsd   0.020562

iter. min.        max.        rmsd       kpush
final kpush: -0.000000
           -------------------------------------------------
          |            Biased Numerical Hessian             |
           -------------------------------------------------
kpush                :  -0.00000
alpha                :   1.00000
step length          :   0.00500
SCC accuracy         :   0.30000
Hessian scale factor :   1.00000
frozen atoms in %    :   0.00000    0
RMS gradient         :   0.00067
estimated CPU  time      0.00 min
estimated wall time      0.00 min

writing file <hessian>.

 projected vibrational frequencies (cm⁻¹)
eigval :       -0.00    -0.00    -0.00     0.00     0.00     0.00
eigval :     1044.63  1948.91  2754.78
           -------------------------------------------------
          |                Property Printout                |
           -------------------------------------------------

    * Orbital Energies and Occupations

         #    Occupation            Energy/Eh            Energy/eV
      -------------------------------------------------------------
         1        2.0000           -0.7516409             -20.4532
         2        2.0000           -0.6304646             -17.1558
         3        2.0000           -0.5799880             -15.7823
         4        2.0000           -0.5697947             -15.5049
         5        2.0000           -0.5215859             -14.1931
         6        1.0000           -0.3327445              -9.0544 (HOMO)
         7                         -0.2822269              -7.6798 (LUMO)
         8                          0.1540551               4.1921
         9                          0.6330115              17.2251
      -------------------------------------------------------------
                  HL-Gap            0.0505176 Eh            1.3747 eV
             Fermi-level           -0.3673254 Eh           -9.9954 eV

     #   Z          covCN         q      C6AA      α(0)
     1   6 C        1.779     0.105    28.612     8.647
     2   8 O        0.856    -0.185    17.818     5.659
     3   1 H        0.923     0.079     1.985     2.204

 Mol. C6AA /au·bohr⁶  :        119.543399
 Mol. C8AA /au·bohr⁸  :       2747.518857
 Mol. α(0) /au        :         16.509552


Wiberg/Mayer (AO) data.
largest (>0.10) Wiberg bond orders for each atom

 ---------------------------------------------------------------------------
     #   Z sym  total        # sym  WBO       # sym  WBO       # sym  WBO
 ---------------------------------------------------------------------------
     1   6 C    3.238 --     2 O    2.294     3 H    0.944
     2   8 O    2.336 --     1 C    2.294
     3   1 H    0.986 --     1 C    0.944
 ---------------------------------------------------------------------------

Topologies differ in total number of bonds
Writing topology from bond orders to xtbtopo.mol

molecular dipole:
                 x           y           z       tot (Debye)
 q only:       -0.380       0.364       0.038
   full:       -0.303       0.580       0.057       1.669
molecular quadrupole (traceless):
                xx          xy          yy          xz          yz          zz
 q only:        1.210     -10.988       6.080      -0.667       0.938      -7.289
  q+dip:       -3.236     -12.069      12.648      -0.833       1.507      -9.412
   full:       -3.697     -11.766      12.115      -0.789       1.361      -8.418

           -------------------------------------------------
          |                Geometry Summary                 |
           -------------------------------------------------

      molecular mass/u    :       29.0180816
   center of mass at/Å    :       -3.8824723       6.1356532       0.1990649
  moments of inertia/u·Å² :        0.6203186E+00   0.1141803E+02   0.1203835E+02
rotational constants/cm⁻¹ :        0.2717576E+02   0.1476404E+01   0.1400327E+01

 * 1 selected distances

     #   Z          #   Z                                           value/Å
     1   6 C        2   8 O                                       1.1798118 (max)

 * 1 distinct bonds (by element types)

   Z      Z             #   av. dist./Å        max./Å        min./Å
   6 C    8 O           1     1.1798118     1.1798118     1.1798118

           -------------------------------------------------
          |               Frequency Printout                |
           -------------------------------------------------
 projected vibrational frequencies (cm⁻¹)
eigval :       -0.00    -0.00    -0.00     0.00     0.00     0.00
eigval :     1044.63  1948.91  2754.78
 reduced masses (amu)
   1: 11.46   2: 12.12   3: 12.03   4: 15.73   5: 15.06   6:  1.70   7:  3.63   8: 13.56
   9:  1.75
 IR intensities (km·mol⁻¹)
   1:  3.76   2:  2.92   3:  0.73   4:  0.81   5:  5.87   6: 42.66   7: 35.56   8: 76.82
   9: 51.12
 Raman intensities (Ä⁴*amu⁻¹)
   1:  0.00   2:  0.00   3:  0.00   4:  0.00   5:  0.00   6:  0.00   7:  0.00   8:  0.00
   9:  0.00
 output can be read by thermo (or use thermo option).
 writing <g98.out> molden fake output.
 recommended (thermochemical) frequency scaling factor: 1.0
           -------------------------------------------------
Molecule has the following symmetry elements: (sigma) 
It seems to be the Cs point group
          |             Thermodynamic Functions             |
           -------------------------------------------------

cs  symmetry found (for desy threshold:  0.10E+00) used in thermo

          ...................................................
          :                      SETUP                      :
          :.................................................:
          :  # frequencies                           3      :
          :  # imaginary freq.                       0      :
          :  linear?                             false      :
          :  only rotor calc.                    false      :
          :  symmetry                               cs      :
          :  rotational number                       1      :
          :  scaling factor                  1.0000000      :
          :  rotor cutoff                   50.0000000 cm⁻¹ :
          :  imag. cutoff                  -20.0000000 cm⁻¹ :
          :.................................................:

    mode    ω/cm⁻¹     T·S(HO)/kcal·mol⁻¹    T·S(FR)/kcal·mol⁻¹   T·S(vib)
   ------------------------------------------------------------------------
   ------------------------------------------------------------------------

   temp. (K)  partition function   enthalpy   heat capacity  entropy
                                   cal/mol     cal/K/mol   cal/K/mol   J/K/mol
 298.15  VIB   1.01                   19.914      0.346      0.080
         ROT   705.                  888.752      2.981     16.015
         INT   710.                  908.666      3.327     16.095
         TR   0.151E+27             1481.254      4.968     36.014
         TOT                        2389.9199     8.2950    52.1084   218.0214

       T/K    H(0)-H(T)+PV         H(T)/Eh          T*S/Eh         G(T)/Eh
   ------------------------------------------------------------------------
    298.15    0.380858E-02    0.169042E-01    0.247584E-01   -0.785415E-02
   ------------------------------------------------------------------------

         :::::::::::::::::::::::::::::::::::::::::::::::::::::
         ::                  THERMODYNAMIC                  ::
         :::::::::::::::::::::::::::::::::::::::::::::::::::::
         :: total free energy          -6.603009133089 Eh   ::
         ::.................................................::
         :: total energy               -6.595154987370 Eh   ::
         :: zero point energy           0.013095636456 Eh   ::
         :: G(RRHO) w/o ZPVE           -0.020949782175 Eh   ::
         :: G(RRHO) contrib.           -0.007854145719 Eh   ::
         :::::::::::::::::::::::::::::::::::::::::::::::::::::

optimized geometry written to: xtbopt.xyz


           -------------------------------------------------
          | TOTAL ENERGY               -6.595154987370 Eh   |
          | TOTAL ENTHALPY             -6.578250771150 Eh   |
          | TOTAL FREE ENERGY          -6.603009133089 Eh   |
          | GRADIENT NORM               0.000672708363 Eh/α |
          | HOMO-LUMO GAP               1.374653660933 eV   |
           -------------------------------------------------

------------------------------------------------------------------------
 * finished run on 2025/06/07 at 21:26:37.889     
------------------------------------------------------------------------
 total:
 * wall-time:     0 d,  0 h,  0 min,  0.028 sec
 *  cpu-time:     0 d,  0 h,  0 min,  0.028 sec
 * ratio c/w:     0.998 speedup
 SCF:
 * wall-time:     0 d,  0 h,  0 min,  0.002 sec
 *  cpu-time:     0 d,  0 h,  0 min,  0.002 sec
 * ratio c/w:     1.000 speedup
 analytical hessian:
 * wall-time:     0 d,  0 h,  0 min,  0.013 sec
 *  cpu-time:     0 d,  0 h,  0 min,  0.013 sec
 * ratio c/w:     0.996 speedup

