3
 energy: -6.594631374164 gnorm: 0.026483742588 xtb: 6.7.1 (edcfbbe)
C           -4.45735162243811        6.39604536135911        0.22942539829156
O           -3.41908760590780        5.85736052326408        0.16824679897764
H           -4.57581106165408        7.50210843537678        0.33328081273080
3
 energy: -6.595025486972 gnorm: 0.008617226081 xtb: 6.7.1 (edcfbbe)
C           -4.45300265730021        6.40588287144369        0.23029071489714
O           -3.41589034456215        5.84764931813594        0.16731163624356
H           -4.58335728813763        7.50198213042033        0.33335065885929
3
 energy: -6.595145254938 gnorm: 0.004423547082 xtb: 6.7.1 (edcfbbe)
C           -4.44652161738450        6.41505276387058        0.23107107391954
O           -3.41598977617009        5.84065545209901        0.16666410724366
H           -4.58973889644540        7.49980610403038        0.33321782883680
3
 energy: -6.595154182139 gnorm: 0.001533982581 xtb: 6.7.1 (edcfbbe)
C           -4.44435237338417        6.41658376488802        0.23118961215610
O           -3.41659100668984        5.83927941526609        0.16654299315106
H           -4.59130690992598        7.49965113984585        0.33322040469284
3
 energy: -6.595154987370 gnorm: 0.000672868884 xtb: 6.7.1 (edcfbbe)
C           -4.44320998799373        6.41684471613053        0.23120146560917
O           -3.41687640179695        5.83856606701702        0.16647992254397
H           -4.59216390020930        7.50010353685242        0.33327162184687
