
                                 *****************
                                 * O   R   C   A *
                                 *****************

                                            #,                                       
                                            ###                                      
                                            ####                                     
                                            #####                                    
                                            ######                                   
                                           ########,                                 
                                     ,,################,,,,,                         
                               ,,#################################,,                 
                          ,,##########################################,,             
                       ,#########################################, ''#####,          
                    ,#############################################,,   '####,        
                  ,##################################################,,,,####,       
                ,###########''''           ''''###############################       
              ,#####''   ,,,,##########,,,,          '''####'''          '####       
            ,##' ,,,,###########################,,,                        '##       
           ' ,,###''''                  '''############,,,                           
         ,,##''                                '''############,,,,        ,,,,,,###''
      ,#''                                            '''#######################'''  
     '                                                          ''''####''''         
             ,#######,   #######,   ,#######,      ##                                
            ,#'     '#,  ##    ##  ,#'     '#,    #''#        ,####,   ,####,        
            ##       ##  ##   ,#'  ##            #'  '#       #'       #'  '#        
            ##       ##  #######   ##           ,######,      #####,   #    #        
            '#,     ,#'  ##    ##  '#,     ,#' ,#      #,     #,   #   #,  ,#        
             '#######'   ##     ##  '#######'  #'      '#     '####' # '####'        



                #########################################################
                #                        -***-                          #
                #          Department of theory and spectroscopy        #
                #                                                       #
                #                      Frank Neese                      #
                #                                                       #
                #     Directorship, Architecture, Infrastructure        #
                #                    SHARK, DRIVERS                     #
                #        Core code/Algorithms in most modules           #
                #                                                       #
                #        Max Planck Institute fuer Kohlenforschung      #
                #                Kaiser Wilhelm Platz 1                 #
                #                 D-45470 Muelheim/Ruhr                 #
                #                      Germany                          #
                #                                                       #
                #                  All rights reserved                  #
                #                        -***-                          #
                #########################################################


                         Program Version 6.0.1  -  RELEASE   -


 With contributions from (in alphabetic order):
[Max-Planck-Institut fuer Kohlenforschung]                               
  Daniel Aravena         : Magnetic Suceptibility                        
  Michael Atanasov       : Ab Initio Ligand Field Theory (pilot matlab implementation)
  Alexander A. Auer      : GIAO ZORA, VPT2 properties, NMR spectrum      
  Ute Becker             : All parallelization in ORCA, NUMFREQ, NUMCALC 
  Giovanni Bistoni       : ED, misc. LED, open-shell LED, HFLD           
  Martin Brehm           : Molecular dynamics                            
  Dmytro Bykov           : pre 5.0 version of the SCF Hessian            
  Marcos Casanova-Páez   : Triplet and SCS-CIS(D). UHF-(DLPNO)-IP/EA/STEOM-CCSD. UHF-CVS-IP/STEOM-CCSD   
  Vijay G. Chilkuri      : MRCI spin determinant printing, contributions to CSF-ICE 
  Pauline Colinet        : FMM embedding                                 
  Dipayan Datta          : RHF DLPNO-CCSD density                        
  Achintya Kumar Dutta   : EOM-CC, STEOM-CC                              
  Nicolas Foglia         : Exact transition moments, OPA infrastructure, MCD improvements    
  Dmitry Ganyushin       : Spin-Orbit,Spin-Spin,Magnetic field MRCI      
  Miquel Garcia-Rates    : C-PCM and meta-GGA Hessian, CCSD/C-PCM, Gaussian charge scheme 
  Tiago L. C. Gouveia    : GS-ROHF, GS-ROCIS                             
  Yang Guo               : DLPNO-NEVPT2, F12-NEVPT2, CIM, IAO-localization        
  Andreas Hansen         : Spin unrestricted coupled pair/coupled cluster methods 
  Ingolf Harden          : AUTO-CI MPn and infrastructure                
  Benjamin Helmich-Paris : MC-RPA, TRAH-(SCF,CASSCF), AVAS, COSX integrals, SCF dyn. polar. 
  Lee Huntington         : MR-EOM, pCC                                   
  Robert Izsak           : Overlap fitted RIJCOSX, COSX-SCS-MP3, EOM     
  Riya Kayal             : Wick's Theorem for AUTO-CI, AUTO-CI UHF-CCSDT 
  Emily Kempfer          : AUTO-CI, RHF CISDT and CCSDT                  
  Christian Kollmar      : KDIIS, OOCD, Brueckner-CCSD(T), CCSD density, CASPT2, CASPT2-K, improved NEVPT2 
  Axel Koslowski         : Symmetry handling                             
  Simone Kossmann        : meta-GGA functionals, TD-DFT gradient, OOMP2, (MP2 Hessian; deprecated post 5.0) 
  Lucas Lang             : DCDCAS                                        
  Marvin Lechner         : AUTO-CI (C++ implementation), FIC-MRCC        
  Spencer Leger          : CASSCF response                               
  Dagmar Lenk            : GEPOL surface, SMD, ORCA-2-JSON               
  Dimitrios Liakos       : Extrapolation schemes; Compound Job, initial MDCI parallelization 
  Dimitrios Manganas     : Further ROCIS development; embedding schemes. LFT, Crystal Embedding 
  Dimitrios Pantazis     : SARC Basis sets                               
  Anastasios Papadopoulos: AUTO-CI, single reference methods and gradients 
  Taras Petrenko         : pre 6.0 DFT Hessian and TD-DFT gradient, (ASA, deprecated), ECA, 1-Electron XAS/XES, NRVS 
  Peter Pinski           : DLPNO-MP2, DLPNO-MP2 Gradient                 
  Christoph Reimann      : Effective Core Potentials                     
  Marius Retegan         : Local ZFS, SOC                                
  Christoph Riplinger    : Optimizer, TS searches, QM/MM, DLPNO-CCSD(T), (RO)-DLPNO pert. Triples 
  Michael Roemelt        : Original ROCIS implementation                 
  Masaaki Saitow         : Open-shell DLPNO-CCSD energy and density      
  Barbara Sandhoefer     : DKH picture change effects                    
  Kantharuban Sivalingam : CASSCF convergence/infrastructure, NEVPT2 and variants, FIC-MRCI 
  Bernardo de Souza      : ESD, SOC TD-DFT                               
  Georgi L. Stoychev     : AutoAux, RI-MP2 NMR, DLPNO-MP2 response, X2C  
  Van Anh Tran           : RI-MP2 g-tensors                              
  Willem Van den Heuvel  : Paramagnetic NMR                              
  Zikuan Wang            : NOTCH, Electric field optimization            
  Frank Wennmohs         : Technical directorship and infrastructure     
  Hang Xu                : AUTO-CI-Response properties                   
                                                                         
[FACCTs GmbH]                                                            
  Markus Bursch, Miquel Garcia-Rates, Christoph Riplinger, Bernardo de Souza, Georgi L. Stoychev 
                                                                 
  APM, Basis sets (HGBS, AHGBS, def-TZVP (Ac-Lr), def2-XVPD (La-Lu)), CI-OPT, improved COSX, DLPNO-Multilevel,           
  DOCKER, DRACO, updates on ESD, GOAT, IRC, LR-CPCM, MBIS, meta-GGA TD-DFT gradient, ML-optimized integration grids, 
  MM, NACMEs, nearIR, NEB, NEB-TS, NL-DFT gradient (VV10), 2- and 3-layer-ONIOM, interface openCOSMO-RS, QMMM,   
  Crystal-QMMM, SF, symmetry and pop. for TD-DFT, r2SCAN hybrids, SOLVATOR                                   
                                                                         
[Other institutions]                                                     
  V. Asgeirsson          : NEB                                           
  Christoph Bannwarth    : sTDA-DFT, sTD-DFT, PBEh-3c, B97-3c, D3        
  Sebastian Ehlert       : rSCAN, r2SCAN, r2SCAN-3c, D4, dhf basis sets  
  Marvin Friede          : D4 for Fr, Ra, Ac-Lr                          
  Lars Goerigk           : TD-DFT with DH, B97 family of functionals     
  Stefan Grimme          : VdW corrections, initial TS optimization, DFT functionals, gCP, sTDA/sTD-DF 
  Waldemar Hujo          : DFT-NL                                        
  H. Jonsson             : NEB                                           
  Holger Kruse           : gCP                                           
  Marcel Mueller         : wB97X-3c, vDZP basis set                      
  Hagen Neugebauer       : wr2SCAN                                       
  Tobias Risthaus        : range-separated hybrid DFT                    
  Lukas Wittmann         : regularized MP2, r2SCAN double-hybrids, wr2SCAN        
                                                                         
We gratefully acknowledge several colleagues who have allowed us to      
interface, adapt or use parts of their codes:                            
  Ed Valeev, F. Pavosevic, A. Kumar             : LibInt (2-el integral package), F12 methods 
  Garnet Chan, S. Sharma, J. Yang, R. Olivares  : DMRG                   
  Ulf Ekstrom                                   : XCFun DFT Library      
  Mihaly Kallay                                 : mrcc  (arbitrary order and MRCC methods)
  Frank Weinhold                                : gennbo (NPA and NBO analysis)           
  Simon Mueller                                 : openCOSMO-RS                            
  Christopher J. Cramer and Donald G. Truhlar   : smd solvation model                     
  S Lehtola, MJT Oliveira, MAL Marques          : LibXC Library                           
  Liviu Ungur et al                             : ANISO software                          


 Your calculation uses the libint2 library for the computation of 2-el integrals
 For citations please refer to: http://libint.valeyev.net

 Your ORCA version has been built with support for libXC version: 6.2.2
 For citations please refer to: https://libxc.gitlab.io

 This ORCA versions uses:
   CBLAS   interface :  Fast vector & matrix operations
   LAPACKE interface :  Fast linear algebra routines
   SCALAPACK package :  Parallel linear algebra routines
   Shared memory     :  Shared parallel matrices
   BLAS/LAPACK       :  OpenBLAS 0.3.27  USE64BITINT DYNAMIC_ARCH NO_AFFINITY Haswell SINGLE_THREADED
        Core in use  :  Haswell
   Copyright (c) 2011-2014, The OpenBLAS Project


NOTE: MaxCore=8000 MB was set to SCF,MP2,MDCI,CIPSI,MRCI and CIS
      => If you want to overwrite this, your respective input block should be placed after the MaxCore statement


***************************************
The coordinates will be read from file: fragment.xyz
***************************************


Your calculation utilizes the atom-pairwise dispersion correction
based on EEQ partial charges (D4)


================================================================================

cite the ECPs for C  [vDZP-ECP], O  [vDZP-ECP] as follows:
   B-Ne (ecp-2-mwb), Al-Ar (ecp-10-mwb), Ga-Kr (ecp-28-mwb), Y-Cd (ecp-28-mwb), In-Xe (ecp-46-mwb):
     A. Bergner, M. Dolg, W. Küchle, H. Stoll, and H. Preuß, Mol. Phys. 80, 1431 (1993)., T. Leininger, A. Berning, A. Nicklass, H. Stoll, H.-J. Werner, and H.-J.Flad, Chem. Phys. 217, 19 (1997).
   Na-Mg, K-Ca, Rb-Sr, Cs-Ba (CRENBL):
     L. Fernandez Pacios and P. A. Christiansen, J. Chem. Phys. 82, 2664 (1985)., M. M. Hurley, L. F. Pacios, P. A. Christiansen, R. B. Ross, and W. C. Ermler, J. Chem. Phys. 84, 6840 (1986)., L. A. LaJohn, P. A. Christiansen, R. B. Ross, T. Atashroo, and W. C. Ermler, J. Chem. Phys. 87, 2812 (1987)., R. B. Ross, J. M. Powers, T. Atashroo, W. C. Ermler, L. A. LaJohn, and P. A. Christiansen, J. Chem. Phys. 93, 6654 (1990). 
   Sc-Zn (ecp-10-mdf):
     M. Dolg, U. Wedig, H. Stoll, and H. Preuss, J. Chem. Phys. 86, 866 (1986). 
   Y-Cd (ecp-28-mwb), Hf-Hg (ecp-60-mwb):
     D. Andrae, U. Häußermann, M. Dolg, H. Stoll, and H. Preuß, Theor. Chim. Acta 77, 123 (1990). 
   La (ecp-46-mwb):
     M. Dolg, H. Stoll, and H. Preuss, J. Chem. Phys. 90, 1730 (1989)., M. Dolg, H. Stoll, and H. Preuss, Theor. Chim. Acta 85, 441 (1993).
   Ce-Lu (SBKJC-ecp):
     T. R. Cundari and W. J. Stevens, J. Chem. Phys. 98, 5555 (1993).
   Tl-Rn (ecp-78-mwb):
     W. Küchle, M. Dolg, H. Stoll, and H. Preuss, Mol. Phys. 74, 1245 (1991).

ECP parameters for C  [vDZP-ECP], O  [vDZP-ECP] have been obtained from:
MM, AH, SG, J. Chem. Phys. 158, 014103 (2023), 10.1063/5.0133026

----- Orbital basis set information -----
Your calculation utilizes the basis: vDZP
   Marcel Mueller, Andreas Hansen, Stefan Grimme 
   J. Chem. Phys. 158, 014103 (2023). DOI: 10.1063/5.0133026

----- AuxJ basis set information -----
Your calculation utilizes the auxiliary basis: def2/J
   F. Weigend, Phys. Chem. Chem. Phys. 8, 1057 (2006).

================================================================================
                                        WARNINGS
                       Please study these warnings very carefully!
================================================================================

WARNING: Frozen-Core approximation turned on, but there are no core electrons.
  ===> : Turning off frozen-core approximation

WARNING: Old DensityContainer found on disk!
         Will remove this file - 
         If you want to keep old densities, please start your calculation with a different basename. 


WARNING: your system is open-shell and RHF/RKS was chosen
  ===> : WILL SWITCH to UHF/UKS


================================================================================
                                       INPUT FILE
================================================================================
NAME = orca.inp
|  1>  ! DEFGRID2 
|  2>  ! wB97X-3c
|  3>  ! SP
|  4>  %pal
|  5> nprocs 1
|  6>  end
|  7>  %maxcore 8000
|  8>  *xyzfile            0             2  fragment.xyz
|  9> 
| 10>                          ****END OF INPUT****
================================================================================

                       ****************************
                       * Single Point Calculation *
                       ****************************

---------------------------------
CARTESIAN COORDINATES (ANGSTROEM)
---------------------------------
  C     -0.543091   -1.734331   -0.248567
  C      0.745161   -1.028412   -0.105009
  C      0.005792    1.209546    0.109172
  O      0.846651    0.311006   -0.416612
  O     -0.841008    0.991645    0.919102
  H     -0.375720   -2.803667   -0.145442
  H     -1.272986   -1.416654    0.493662
  H     -0.980670   -1.554333   -1.235894
  H      1.693745   -1.519301   -0.259110
  H      0.225707    2.192672   -0.317915

----------------------------
CARTESIAN COORDINATES (A.U.)
----------------------------
  NO LB      ZA    FRAG     MASS         X           Y           Z
   0 C     4.0000*   0    12.011   -1.026293   -3.277411   -0.469723
   1 C     4.0000*   0    12.011    1.408151   -1.943417   -0.198438
   2 C     4.0000*   0    12.011    0.010946    2.285710    0.206306
   3 O     6.0000*   0    15.999    1.599939    0.587717   -0.787283
   4 O     6.0000*   0    15.999   -1.589274    1.873937    1.736851
   5 H     1.0000    0     1.008   -0.710008   -5.298164   -0.274845
   6 H     1.0000    0     1.008   -2.405595   -2.677088    0.932887
   7 H     1.0000    0     1.008   -1.853198   -2.937263   -2.335501
   8 H     1.0000    0     1.008    3.200715   -2.871063   -0.489647
   9 H     1.0000    0     1.008    0.426525    4.143550   -0.600773
* core charge reduced due to ECP

--------------------------------
INTERNAL COORDINATES (ANGSTROEM)
--------------------------------
 C      0   0   0     0.000000000000     0.00000000     0.00000000
 C      1   0   0     1.475982940554     0.00000000     0.00000000
 C      2   1   0     2.366641827334   100.85887432     0.00000000
 O      3   2   1     1.338232391033    29.91278772   223.98811890
 O      3   2   1     1.191862602245    96.34879217    47.27102415
 H      1   2   3     1.087256769365   109.07487402   191.97194160
 H      1   2   3     1.088379273923   112.29660137   312.91445045
 H      1   2   3     1.094847383263   110.97237200    73.12868490
 H      2   1   3     1.079134302991   122.39608106   189.17643146
 H      3   2   1     1.094213887888   138.72144261   228.93828538

---------------------------
INTERNAL COORDINATES (A.U.)
---------------------------
 C      0   0   0     0.000000000000     0.00000000     0.00000000
 C      1   0   0     2.789203535987     0.00000000     0.00000000
 C      2   1   0     4.472304910744   100.85887432     0.00000000
 O      3   2   1     2.528892722595    29.91278772   223.98811890
 O      3   2   1     2.252293907506    96.34879217    47.27102415
 H      1   2   3     2.054617531352   109.07487402   191.97194160
 H      1   2   3     2.056738757551   112.29660137   312.91445045
 H      1   2   3     2.068961712808   110.97237200    73.12868490
 H      2   1   3     2.039268294374   122.39608106   189.17643146
 H      3   2   1     2.067764580041   138.72144261   228.93828538

---------------------
BASIS SET INFORMATION
---------------------
There are 3 groups of distinct atoms

 Group   1 Type C   : 6s6p2d contracted to 2s2p1d pattern {42/42/2}
 Group   2 Type O   : 6s6p2d contracted to 2s2p1d pattern {42/42/2}
 Group   3 Type H   : 8s2p contracted to 2s1p pattern {53/2}

Atom   0C    basis set group =>   1
Atom   1C    basis set group =>   1
Atom   2C    basis set group =>   1
Atom   3O    basis set group =>   2
Atom   4O    basis set group =>   2
Atom   5H    basis set group =>   3
Atom   6H    basis set group =>   3
Atom   7H    basis set group =>   3
Atom   8H    basis set group =>   3
Atom   9H    basis set group =>   3
---------------------------------
AUXILIARY/J BASIS SET INFORMATION
---------------------------------
There are 3 groups of distinct atoms

 Group   1 Type C   : 12s5p4d2f1g contracted to 6s4p3d1f1g pattern {711111/2111/211/2/1}
 Group   2 Type O   : 12s5p4d2f1g contracted to 6s4p3d1f1g pattern {711111/2111/211/2/1}
 Group   3 Type H   : 5s2p1d contracted to 3s1p1d pattern {311/2/1}

Atom   0C    basis set group =>   1
Atom   1C    basis set group =>   1
Atom   2C    basis set group =>   1
Atom   3O    basis set group =>   2
Atom   4O    basis set group =>   2
Atom   5H    basis set group =>   3
Atom   6H    basis set group =>   3
Atom   7H    basis set group =>   3
Atom   8H    basis set group =>   3
Atom   9H    basis set group =>   3
-------------------------
ECP PARAMETER INFORMATION
-------------------------

 Group 1, Type C  ECP vDZP-ECP (replacing 2 core electrons, lmax=3)
 Group 2, Type O  ECP vDZP-ECP (replacing 2 core electrons, lmax=3)

Atom   0C    ECP group =>   1
Atom   1C    ECP group =>   1
Atom   2C    ECP group =>   1
Atom   3O    ECP group =>   2
Atom   4O    ECP group =>   2

------------------------------------------------------------------------------
                             ORCA STARTUP CALCULATIONS
                           -- RI-GTO INTEGRALS CHOSEN --
------------------------------------------------------------------------------
------------------------------------------------------------------------------
                   ___                                                        
                  /   \      - P O W E R E D   B Y -                         
                 /     \                                                     
                 |  |  |   _    _      __       _____    __    __             
                 |  |  |  | |  | |    /  \     |  _  \  |  |  /  |          
                  \  \/   | |  | |   /    \    | | | |  |  | /  /          
                 / \  \   | |__| |  /  /\  \   | |_| |  |  |/  /          
                |  |  |   |  __  | /  /__\  \  |    /   |      \           
                |  |  |   | |  | | |   __   |  |    \   |  |\   \          
                \     /   | |  | | |  |  |  |  | |\  \  |  | \   \       
                 \___/    |_|  |_| |__|  |__|  |_| \__\ |__|  \__/        
                                                                              
                      - O R C A' S   B I G   F R I E N D -                    
                                      &                                       
                       - I N T E G R A L  F E E D E R -                       
                                                                              
 v1 FN, 2020, v2 2021, v3 2022-2024                                           
------------------------------------------------------------------------------


----------------------
SHARK INTEGRAL PACKAGE
----------------------

Number of atoms                             ...     10
Number of basis functions                   ...     90
Number of shells                            ...     40
Maximum angular momentum                    ...      2
Integral batch strategy                     ... SHARK/LIBINT Hybrid
RI-J (if used) integral strategy            ... SPLIT-RIJ (Revised 2003 algorithm where possible)
Printlevel                                  ...      1
Contraction scheme used                     ... SEGMENTED contraction
Prescreening option                         ... SCHWARTZ
   Thresh                                   ... 1.000e-10
   Tcut                                     ... 1.000e-11
   Tpresel                                  ... 1.000e-11 
Coulomb Range Separation                    ... NOT USED
Exchange Range Separation                   ... Long Range
   Mu parameter                             ... 3.000e-01
   Scaling (regular/separated)              ... 1.670e-01 8.330e-01
Multipole approximations                    ... NOT USED
Finite Nucleus Model                        ... NOT USED
CABS basis                                  ... NOT available
Auxiliary Coulomb fitting basis             ... AVAILABLE
   # of basis functions in Aux-J            ...    300
   # of shells in Aux-J                     ...    100
   Maximum angular momentum in Aux-J        ...      4
Auxiliary J/K fitting basis                 ... NOT available
Auxiliary Correlation fitting basis         ... NOT available
Auxiliary 'external' fitting basis          ... NOT available

Checking pre-screening integrals            ... done (  0.0 sec) Dimension = 40
Check shell pair data                       ... done (  0.0 sec)
Shell pair information
Shell pair cut-off parameter TPreSel        ...   1.0e-11
Total number of shell pairs                 ...       820
Shell pairs after pre-screening             ...       820
Total number of primitive shell pairs       ...      7405
Primitive shell pairs kept                  ...      6709
          la=0 lb=0:    210 shell pairs
          la=1 lb=0:    300 shell pairs
          la=1 lb=1:    120 shell pairs
          la=2 lb=0:    100 shell pairs
          la=2 lb=1:     75 shell pairs
          la=2 lb=2:     15 shell pairs

Calculating one electron integrals          ... done (  0.0 sec)
Calculating ECP integrals                   ... done (  0.1 sec)
Calculating RI/J V-Matrix + Cholesky decomp.... done (  0.0 sec)
Calculating Nuclear repulsion               ... done (  0.0 sec) ENN=     95.073361955543 Eh

Diagonalization of the overlap matrix:
Smallest eigenvalue                        ... 2.466e-03
Time for diagonalization                   ...    0.001 sec
Threshold for overlap eigenvalues          ... 1.000e-07
Number of eigenvalues below threshold      ... 0
Time for construction of square roots      ...    0.000 sec
Total time needed                          ...    0.002 sec

-------------------
DFT GRID GENERATION
-------------------

General Integration Accuracy     IntAcc      ... 4.388
Radial Grid Type                 RadialGrid  ... OptM3 with GC (2021)
Angular Grid (max. ang.)         AngularGrid ... 4 (Lebedev-302)
Angular grid pruning method      GridPruning ... 4 (adaptive)
Weight generation scheme         WeightScheme... mBecke (2022)
Basis function cutoff            BFCut       ... 1.0000e-10
Integration weight cutoff        WCut        ... 1.0000e-14
Partially contracted basis set               ... off
Rotationally invariant grid construction     ... off
Angular grids for H and He will be reduced by one unit

Total number of grid points                  ...    46623
Total number of batches                      ...      733
Average number of points per batch           ...       63
Average number of grid points per atom       ...     4662

--------------------
COSX GRID GENERATION
--------------------

GRIDX 1
-------
General Integration Accuracy     IntAcc      ... 3.816
Radial Grid Type                 RadialGrid  ... OptM3 with GC (2021)
Angular Grid (max. ang.)         AngularGrid ... 1 (Lebedev-50)
Angular grid pruning method      GridPruning ... 4 (adaptive)
Weight generation scheme         WeightScheme... mBecke (2022)
Basis function cutoff            BFCut       ... 1.0000e-10
Integration weight cutoff        WCut        ... 1.0000e-14
Partially contracted basis set               ... on
Rotationally invariant grid construction     ... off
Angular grids for H and He will be reduced by one unit

Total number of grid points                  ...     5982
Total number of batches                      ...       53
Average number of points per batch           ...      112
Average number of grid points per atom       ...      598
UseSFitting                                  ... on

GRIDX 2
-------
General Integration Accuracy     IntAcc      ... 4.020
Radial Grid Type                 RadialGrid  ... OptM3 with GC (2021)
Angular Grid (max. ang.)         AngularGrid ... 2 (Lebedev-110)
Angular grid pruning method      GridPruning ... 4 (adaptive)
Weight generation scheme         WeightScheme... mBecke (2022)
Basis function cutoff            BFCut       ... 1.0000e-10
Integration weight cutoff        WCut        ... 1.0000e-14
Partially contracted basis set               ... on
Rotationally invariant grid construction     ... off
Angular grids for H and He will be reduced by one unit

Total number of grid points                  ...    13090
Total number of batches                      ...      107
Average number of points per batch           ...      122
Average number of grid points per atom       ...     1309
UseSFitting                                  ... on

GRIDX 3
-------
General Integration Accuracy     IntAcc      ... 4.338
Radial Grid Type                 RadialGrid  ... OptM3 with GC (2021)
Angular Grid (max. ang.)         AngularGrid ... 3 (Lebedev-194)
Angular grid pruning method      GridPruning ... 4 (adaptive)
Weight generation scheme         WeightScheme... mBecke (2022)
Basis function cutoff            BFCut       ... 1.0000e-10
Integration weight cutoff        WCut        ... 1.0000e-14
Partially contracted basis set               ... on
Rotationally invariant grid construction     ... off
Angular grids for H and He will be reduced by one unit

Total number of grid points                  ...    28851
Total number of batches                      ...      229
Average number of points per batch           ...      125
Average number of grid points per atom       ...     2885
UseSFitting                                  ... on
Initializing property integral containers    ... done (  0.0 sec)

SHARK setup successfully completed in   1.1 seconds

Maximum memory used throughout the entire STARTUP-calculation: 21.6 MB
-------------------------------------------------------------------------------
                                 ORCA GUESS
                   Start orbitals & Density for SCF / CASSCF
-------------------------------------------------------------------------------

------------
SCF SETTINGS
------------
Hamiltonian:
 Density Functional     Method          .... DFT(GTOs)
 Exchange Functional    Exchange        .... WB97X-V
 Correlation Functional Correlation     .... WB97X-V
 Gradients option       PostSCFGGA      .... off
 Hybrid DFT is turned on
   Fraction HF Exchange ScalHFX         ....  0.167000
   Scaling of DF-GGA-X  ScalDFX         ....  0.000000
   Scaling of DF-GGA-C  ScalDFC         ....  1.000000
   Scaling of DF-LDA-C  ScalLDAC        ....  1.000000
   Perturbative correction              ....  0.000000
 Long-range corrected/Screened/Range-Separated Hybrid DFT is turned on
   Amount of maximum screened exact exchange              ....  0.833000
   Range separation parameter mu (erf(mu*r12)/r12)        ....  0.300000
   NL short-range parameter             ....  6.000000
   NL long-range parameter              ....  0.010000
 RI-approximation to the Coulomb term is turned on
   Number of AuxJ basis functions       .... 300
   RIJ-COSX (HFX calculated with COS-X)).... on


General Settings:
 Integral files         IntName         .... orca
 Hartree-Fock type      HFTyp           .... UHF
 Total Charge           Charge          ....    0
 Multiplicity           Mult            ....    2
 Number of Electrons    NEL             ....   29
 Basis Dimension        Dim             ....   90
 Nuclear Repulsion      ENuc            ....     95.0733619555 Eh

Convergence Acceleration:
 AO-DIIS                CNVDIIS         .... on
   Start iteration      DIISMaxIt       ....    12
   Startup error        DIISStart       ....  0.200000
   # of expansion vecs  DIISMaxEq       ....     5
   Bias factor          DIISBfac        ....   1.050
   Max. coefficient     DIISMaxC        ....  10.000
 MO-DIIS                CNVKDIIS        .... off
 Trust-Rad. Augm. Hess. CNVTRAH         .... auto
   Auto Start mean grad. ratio tolernc. ....  1.125000
   Auto Start start iteration           ....    50
   Auto Start num. interpolation iter.  ....    10
   Max. Number of Micro iterations      ....    24
   Max. Number of Macro iterations      .... Maxiter - #DIIS iter
   Number of Davidson start vectors     ....     2
   Converg. threshold    (grad. norm)   ....   5.000e-05
   Grad. Scal. Fac. for Micro threshold ....   0.100
   Minimum threshold for Micro iter.    ....   1.000e-02
   NR start threshold (gradient norm)   ....   1.000e-04
   Initial trust radius                 ....   0.400
   Minimum AH scaling param. (alpha)    ....   1.000
   Maximum AH scaling param. (alpha)    .... 1000.000
   Quad. conv. algorithm                .... NR
   White noise on init. David. guess    .... on
   Maximum white noise                  ....   0.010
   Pseudo random numbers                .... off
   Inactive MOs                         .... canonical
   Orbital update algorithm             .... Taylor
   Preconditioner                       .... Diag
   Full preconditioner red. dimension   ....   250
 SOSCF                  CNVSOSCF        .... on
   Start iteration      SOSCFMaxIt      ....   150
   Startup grad/error   SOSCFStart      ....  0.003300
   Hessian update       SOSCFHessUp     .... L-BFGS
 Level Shifting         CNVShift        .... on
   Level shift para.    LevelShift      ....    0.2500
   Turn off err/grad.   ShiftErr        ....    0.0010
 Zerner damping         CNVZerner       .... off
 Static damping         CNVDamp         .... on
   Fraction old density DampFac         ....    0.7000
   Max. Damping (<1)    DampMax         ....    0.9800
   Min. Damping (>=0)   DampMin         ....    0.0000
   Turn off err/grad.   DampErr         ....    0.1000

SCF Procedure:
 Maximum # iterations   MaxIter         ....   125
 SCF integral mode      SCFMode         .... Direct
   Integral package                     .... SHARK and LIBINT hybrid scheme
 Reset frequency        DirectResetFreq ....    20
 Integral Threshold     Thresh          ....  1.000e-10 Eh
 Primitive CutOff       TCut            ....  1.000e-11 Eh

Convergence Tolerance:
 Convergence Check Mode ConvCheckMode   .... Total+1el-Energy
 Convergence forced     ConvForced      .... 0
 Energy Change          TolE            ....  1.000e-06 Eh
 1-El. energy change                    ....  1.000e-03 Eh
 Orbital Gradient       TolG            ....  5.000e-05
 Orbital Rotation angle TolX            ....  5.000e-05
 DIIS Error             TolErr          ....  1.000e-06

------------------------------
INITIAL GUESS: MODEL POTENTIAL
------------------------------
Loading Hartree-Fock densities                     ... done
Atomic calculation to generate a density for atom 0 (C  with ECP)
  Multiplicity assumed   :    1
  Atomic configuration   : 1s2 2s2 2p2 
  Number of open shells  : 1
  Command: /home/alejandro/orca_6_0_1/orca orca_atom6.inp "" > orca_atom6.out
Returned from the atomic calculation with res=0
Atomic calculation to generate a density for atom 3 (O  with ECP)
  Multiplicity assumed   :    3
  Atomic configuration   : 1s2 2s2 2p4 
  Number of open shells  : 1
  Command: /home/alejandro/orca_6_0_1/orca orca_atom8.inp "" > orca_atom8.out
Returned from the atomic calculation with res=0
Calculating cut-offs                               ... done
Initializing the effective Hamiltonian             ... done
Setting up the integral package (SHARK)            ... done
Starting the Coulomb interaction                   ... done (   0.1 sec)
Making the grid                                    ... done (   0.1 sec)
Mapping shells                                     ... done
Starting the XC term evaluation                    ... done (   0.1 sec)
  promolecular density results
     # of electrons  =     38.998817787
     EX              =    -22.522580674
     EC              =     -1.621291075
     EX+EC           =    -24.143871749
Transforming the Hamiltonian                       ... done (   0.0 sec)
Diagonalizing the Hamiltonian                      ... done (   0.0 sec)
Back transforming the eigenvectors                 ... done (   0.0 sec)
Now organizing SCF variables                       ... done
                      ------------------
                      INITIAL GUESS DONE (   1.2 sec)
                      ------------------
             **** ENERGY FILE WAS UPDATED (orca.en.tmp) ****
Finished Guess after   1.2 sec
Maximum memory used throughout the entire GUESS-calculation: 12.2 MB

-------------------------------------------------------------------------------------------
                                      ORCA LEAN-SCF
                              memory conserving SCF solver
-------------------------------------------------------------------------------------------

----------------------------------------D-I-I-S--------------------------------------------
Iteration    Energy (Eh)           Delta-E    RMSDP     MaxDP     DIISErr   Damp  Time(sec)
-------------------------------------------------------------------------------------------
               ***  Starting incremental Fock matrix formation  ***
    1    -51.9938815547830444     0.00e+00  2.28e-03  4.03e-02  9.37e-02  0.700   6.4
    2    -52.0569789843915345    -6.31e-02  1.58e-03  2.59e-02  5.38e-02  0.700   3.2
                               ***Turning on AO-DIIS***
    3    -52.0874762719862616    -3.05e-02  8.25e-04  1.30e-02  2.95e-02  0.700   3.2
    4    -52.1060532396920024    -1.86e-02  1.78e-03  2.42e-02  1.83e-02  0.000   4.7
    5    -52.1473178028604565    -4.13e-02  2.96e-04  7.72e-03  4.64e-03  0.000   3.3
                              *** Initializing SOSCF ***
---------------------------------------S-O-S-C-F--------------------------------------
Iteration    Energy (Eh)           Delta-E    RMSDP     MaxDP     MaxGrad    Time(sec)
--------------------------------------------------------------------------------------
    6    -52.1477463165903572    -4.29e-04  1.87e-04  4.72e-03  2.67e-03     3.0
               *** Restarting incremental Fock matrix formation ***
    7    -52.1479066053732510    -1.60e-04  1.61e-04  3.26e-03  3.58e-03     6.4
    8    -52.1479948884045683    -8.83e-05  2.31e-04  4.64e-03  1.60e-03     5.5
    9    -52.1480232784121682    -2.84e-05  6.94e-05  1.21e-03  1.01e-03     5.6
   10    -52.1480365002384332    -1.32e-05  7.87e-06  1.99e-04  1.18e-04     5.4
   11    -52.1480366971602365    -1.97e-07  6.85e-06  2.10e-04  5.12e-05     4.6
                 **** Energy Check signals convergence ****

               *****************************************************
               *                     SUCCESS                       *
               *           SCF CONVERGED AFTER  11 CYCLES          *
               *****************************************************

Recomputing exchange energy using gridx3       ... done (   12.059 sec)
Old exchange energy                            :     -5.874992175 Eh
New exchange energy                            :     -5.875009446 Eh
Exchange energy change after final integration :     -0.000017271 Eh
Total energy after final integration           :    -52.148053968 Eh
             **** ENERGY FILE WAS UPDATED (orca.en.tmp) ****

----------------
TOTAL SCF ENERGY
----------------

Total Energy       :        -52.14805396810906 Eh           -1419.02069 eV

Components:
Nuclear Repulsion  :         95.07336195554258 Eh            2587.07770 eV
Electronic Energy  :       -147.22139865270282 Eh           -4006.09792 eV
One Electron Energy:       -269.89017954348878 Eh           -7344.08515 eV
Two Electron Energy:        122.66878089078598 Eh            3337.98723 eV

Virial components:
Potential Energy   :        -92.94691448404356 Eh           -2529.21413 eV
Kinetic Energy     :         40.79886051593449 Eh            1110.19344 eV
Virial Ratio       :          2.27817427517962

DFT components:
N(Alpha)           :       15.000000237762 electrons
N(Beta)            :       13.999993550713 electrons
N(Total)           :       28.999993788474 electrons
E(X)               :       -7.133227925029 Eh       
E(C)               :       -1.116581475013 Eh       
E(XC)              :       -8.249809400041 Eh       

---------------
SCF CONVERGENCE
---------------

  Last Energy change         ...    1.9692e-07  Tolerance :   1.0000e-06
  Last MAX-Density change    ...    2.1008e-04  Tolerance :   1.0000e-05
  Last RMS-Density change    ...    6.8470e-06  Tolerance :   1.0000e-06
  Last DIIS Error            ...    2.6689e-03  Tolerance :   1.0000e-06
  Last Orbital Gradient      ...    5.1219e-05  Tolerance :   5.0000e-05
  Last Orbital Rotation      ...    1.9748e-04  Tolerance :   5.0000e-05


----------------------
UHF SPIN CONTAMINATION
----------------------

Warning: in a DFT calculation there is little theoretical justification to 
         calculate <S**2> as in Hartree-Fock theory. We will do it anyways
         but you should keep in mind that the values have only limited relevance

Expectation value of <S**2>     :     0.753951
Ideal value S*(S+1) for S=0.5   :     0.750000
Deviation                       :     0.003951

----------------
ORBITAL ENERGIES
----------------
                 SPIN UP ORBITALS
  NO   OCC          E(Eh)            E(eV) 
   0   1.0000      -1.262837       -34.3635 
   1   1.0000      -1.169512       -31.8240 
   2   1.0000      -0.925684       -25.1891 
   3   1.0000      -0.830547       -22.6003 
   4   1.0000      -0.703483       -19.1428 
   5   1.0000      -0.649042       -17.6613 
   6   1.0000      -0.621371       -16.9084 
   7   1.0000      -0.601751       -16.3745 
   8   1.0000      -0.565571       -15.3900 
   9   1.0000      -0.536412       -14.5965 
  10   1.0000      -0.513778       -13.9806 
  11   1.0000      -0.497532       -13.5385 
  12   1.0000      -0.452471       -12.3124 
  13   1.0000      -0.408311       -11.1107 
  14   1.0000      -0.307555        -8.3690 
  15   0.0000       0.079386         2.1602 
  16   0.0000       0.093192         2.5359 
  17   0.0000       0.105609         2.8738 
  18   0.0000       0.112497         3.0612 
  19   0.0000       0.146469         3.9856 
  20   0.0000       0.163417         4.4468 
  21   0.0000       0.213134         5.7997 
  22   0.0000       0.255820         6.9612 
  23   0.0000       0.303252         8.2519 
  24   0.0000       0.358290         9.7496 
  25   0.0000       0.372148        10.1267 

                 SPIN DOWN ORBITALS
  NO   OCC          E(Eh)            E(eV) 
   0   1.0000      -1.258103       -34.2347 
   1   1.0000      -1.166499       -31.7420 
   2   1.0000      -0.908825       -24.7304 
   3   1.0000      -0.825196       -22.4547 
   4   1.0000      -0.693991       -18.8844 
   5   1.0000      -0.634425       -17.2636 
   6   1.0000      -0.615514       -16.7490 
   7   1.0000      -0.592489       -16.1225 
   8   1.0000      -0.555197       -15.1077 
   9   1.0000      -0.524715       -14.2782 
  10   1.0000      -0.507954       -13.8221 
  11   1.0000      -0.491125       -13.3642 
  12   1.0000      -0.445404       -12.1201 
  13   1.0000      -0.406943       -11.0735 
  14   0.0000       0.017280         0.4702 
  15   0.0000       0.087709         2.3867 
  16   0.0000       0.101588         2.7643 
  17   0.0000       0.106259         2.8914 
  18   0.0000       0.115321         3.1380 
  19   0.0000       0.147615         4.0168 
  20   0.0000       0.164711         4.4820 
  21   0.0000       0.222256         6.0479 
  22   0.0000       0.257008         6.9935 
  23   0.0000       0.311777         8.4839 
  24   0.0000       0.364364         9.9148 
*Only the first 10 virtual orbitals were printed.

                    ********************************
                    * MULLIKEN POPULATION ANALYSIS *
                    ********************************

--------------------------------------------
MULLIKEN ATOMIC CHARGES AND SPIN POPULATIONS
--------------------------------------------
   0 C :   -0.062860   -0.055949
   1 C :    0.049063    0.938698
   2 C :    0.299878    0.022160
   3 O :   -0.209742    0.006288
   4 O :   -0.303114    0.026606
   5 H :    0.047240    0.001001
   6 H :    0.073505    0.025219
   7 H :    0.047250    0.053405
   8 H :    0.034153   -0.015710
   9 H :    0.024625   -0.001718
Sum of atomic charges         :   -0.0000000
Sum of atomic spin populations:    1.0000000

-----------------------------------------------------
MULLIKEN REDUCED ORBITAL CHARGES AND SPIN POPULATIONS
-----------------------------------------------------
CHARGE
  0 C s       :     0.919558  s :     0.919558
      pz      :     1.065361  p :     3.070151
      px      :     0.978009
      py      :     1.026781
      dz2     :     0.013713  d :     0.073151
      dxz     :     0.025033
      dyz     :     0.004867
      dx2y2   :     0.017725
      dxy     :     0.011812

  1 C s       :     1.143729  s :     1.143729
      pz      :     0.987628  p :     2.681566
      px      :     0.991688
      py      :     0.702250
      dz2     :     0.010129  d :     0.125642
      dxz     :     0.011792
      dyz     :     0.023805
      dx2y2   :     0.038060
      dxy     :     0.041855

  2 C s       :     1.087878  s :     1.087878
      pz      :     0.761452  p :     2.362516
      px      :     0.757930
      py      :     0.843134
      dz2     :     0.048967  d :     0.249728
      dxz     :     0.028945
      dyz     :     0.058193
      dx2y2   :     0.054911
      dxy     :     0.058712

  3 O s       :     1.648096  s :     1.648096
      pz      :     1.664046  p :     4.517501
      px      :     1.625122
      py      :     1.228333
      dz2     :     0.005647  d :     0.044144
      dxz     :     0.005164
      dyz     :     0.012606
      dx2y2   :     0.009849
      dxy     :     0.010878

  4 O s       :     1.760135  s :     1.760135
      pz      :     1.350148  p :     4.504574
      px      :     1.379646
      py      :     1.774779
      dz2     :     0.012042  d :     0.038405
      dxz     :     0.010024
      dyz     :     0.004407
      dx2y2   :     0.006749
      dxy     :     0.005183

  5 H s       :     0.907030  s :     0.907030
      pz      :     0.011285  p :     0.045730
      px      :     0.010799
      py      :     0.023647

  6 H s       :     0.880035  s :     0.880035
      pz      :     0.017412  p :     0.046459
      px      :     0.016563
      py      :     0.012485

  7 H s       :     0.907531  s :     0.907531
      pz      :     0.021529  p :     0.045218
      px      :     0.013024
      py      :     0.010665

  8 H s       :     0.918008  s :     0.918008
      pz      :     0.016827  p :     0.047839
      px      :     0.022082
      py      :     0.008930

  9 H s       :     0.934278  s :     0.934278
      pz      :     0.010869  p :     0.041096
      px      :     0.007696
      py      :     0.022532


SPIN
  0 C s       :    -0.013795  s :    -0.013795
      pz      :    -0.025499  p :    -0.061878
      px      :    -0.026420
      py      :    -0.009959
      dz2     :     0.001427  d :     0.019724
      dxz     :     0.017031
      dyz     :     0.000739
      dx2y2   :     0.000382
      dxy     :     0.000145

  1 C s       :     0.096249  s :     0.096249
      pz      :     0.795777  p :     0.844386
      px      :     0.024611
      py      :     0.023998
      dz2     :    -0.001606  d :    -0.001937
      dxz     :    -0.000166
      dyz     :    -0.000111
      dx2y2   :    -0.000045
      dxy     :    -0.000010

  2 C s       :     0.002345  s :     0.002345
      pz      :     0.004074  p :     0.017599
      px      :     0.013161
      py      :     0.000364
      dz2     :     0.002329  d :     0.002216
      dxz     :     0.000122
      dyz     :    -0.000187
      dx2y2   :     0.000074
      dxy     :    -0.000123

  3 O s       :    -0.001795  s :    -0.001795
      pz      :     0.021368  p :     0.001205
      px      :    -0.001337
      py      :    -0.018826
      dz2     :     0.000219  d :     0.006878
      dxz     :     0.000181
      dyz     :     0.005840
      dx2y2   :     0.000610
      dxy     :     0.000027

  4 O s       :     0.000372  s :     0.000372
      pz      :     0.009715  p :     0.026417
      px      :     0.016403
      py      :     0.000299
      dz2     :    -0.000172  d :    -0.000183
      dxz     :     0.000028
      dyz     :     0.000024
      dx2y2   :    -0.000052
      dxy     :    -0.000010

  5 H s       :     0.001439  s :     0.001439
      pz      :    -0.000105  p :    -0.000438
      px      :    -0.000334
      py      :     0.000001

  6 H s       :     0.026109  s :     0.026109
      pz      :    -0.000224  p :    -0.000890
      px      :    -0.000732
      py      :     0.000066

  7 H s       :     0.053927  s :     0.053927
      pz      :    -0.000318  p :    -0.000522
      px      :    -0.000437
      py      :     0.000233

  8 H s       :    -0.030169  s :    -0.030169
      pz      :     0.013580  p :     0.014459
      px      :     0.000756
      py      :     0.000122

  9 H s       :    -0.002080  s :    -0.002080
      pz      :     0.000187  p :     0.000362
      px      :     0.000152
      py      :     0.000023



                     *******************************
                     * LOEWDIN POPULATION ANALYSIS *
                     *******************************

-------------------------------------------
LOEWDIN ATOMIC CHARGES AND SPIN POPULATIONS
-------------------------------------------
   0 C :   -0.125985    0.037914
   1 C :    0.017217    0.749449
   2 C :   -0.016693    0.029527
   3 O :   -0.000790    0.059636
   4 O :   -0.119756    0.024551
   5 H :    0.057784   -0.001079
   6 H :    0.055396    0.020426
   7 H :    0.050983    0.038496
   8 H :    0.027749    0.040179
   9 H :    0.054095    0.000901

----------------------------------------------------
LOEWDIN REDUCED ORBITAL CHARGES AND SPIN POPULATIONS
----------------------------------------------------
CHARGE
  0 C s       :     0.767078  s :     0.767078
      pz      :     1.066617  p :     3.114876
      px      :     1.004017
      py      :     1.044243
      dz2     :     0.044818  d :     0.244031
      dxz     :     0.081751
      dyz     :     0.014358
      dx2y2   :     0.064457
      dxy     :     0.038646

  1 C s       :     0.835480  s :     0.835480
      pz      :     0.920776  p :     2.768846
      px      :     1.056421
      py      :     0.791649
      dz2     :     0.032725  d :     0.378457
      dxz     :     0.034737
      dyz     :     0.069402
      dx2y2   :     0.114999
      dxy     :     0.126594

  2 C s       :     0.777268  s :     0.777268
      pz      :     0.817240  p :     2.557235
      px      :     0.816558
      py      :     0.923436
      dz2     :     0.116386  d :     0.682191
      dxz     :     0.117845
      dyz     :     0.149537
      dx2y2   :     0.144850
      dxy     :     0.153573

  3 O s       :     1.366514  s :     1.366514
      pz      :     1.598288  p :     4.514730
      px      :     1.588828
      py      :     1.327614
      dz2     :     0.013439  d :     0.119546
      dxz     :     0.009710
      dyz     :     0.033639
      dx2y2   :     0.028773
      dxy     :     0.033985

  4 O s       :     1.520043  s :     1.520043
      pz      :     1.409896  p :     4.523727
      px      :     1.440215
      py      :     1.673617
      dz2     :     0.016833  d :     0.075986
      dxz     :     0.023942
      dyz     :     0.010918
      dx2y2   :     0.012436
      dxy     :     0.011857

  5 H s       :     0.791595  s :     0.791595
      pz      :     0.044326  p :     0.150621
      px      :     0.040571
      py      :     0.065724

  6 H s       :     0.786615  s :     0.786615
      pz      :     0.056304  p :     0.157989
      px      :     0.053734
      py      :     0.047951

  7 H s       :     0.794805  s :     0.794805
      pz      :     0.064618  p :     0.154212
      px      :     0.047757
      py      :     0.041837

  8 H s       :     0.813202  s :     0.813202
      pz      :     0.059208  p :     0.159049
      px      :     0.066527
      py      :     0.033313

  9 H s       :     0.819837  s :     0.819837
      pz      :     0.033405  p :     0.126068
      px      :     0.026355
      py      :     0.066308


SPIN
  0 C s       :    -0.002496  s :    -0.002496
      pz      :    -0.004532  p :    -0.020270
      px      :    -0.011763
      py      :    -0.003975
      dz2     :     0.003969  d :     0.060680
      dxz     :     0.050846
      dyz     :     0.002624
      dx2y2   :     0.001512
      dxy     :     0.001728

  1 C s       :     0.038378  s :     0.038378
      pz      :     0.676237  p :     0.708842
      px      :     0.015152
      py      :     0.017454
      dz2     :     0.002493  d :     0.002228
      dxz     :     0.000927
      dyz     :     0.000994
      dx2y2   :    -0.000963
      dxy     :    -0.001224

  2 C s       :     0.002432  s :     0.002432
      pz      :     0.005122  p :     0.020523
      px      :     0.012749
      py      :     0.002651
      dz2     :     0.005479  d :     0.006572
      dxz     :     0.001034
      dyz     :    -0.000374
      dx2y2   :     0.000562
      dxy     :    -0.000129

  3 O s       :     0.001825  s :     0.001825
      pz      :     0.043475  p :     0.034388
      px      :    -0.001128
      py      :    -0.007959
      dz2     :     0.001802  d :     0.023423
      dxz     :     0.000205
      dyz     :     0.019190
      dx2y2   :     0.001916
      dxy     :     0.000310

  4 O s       :     0.000332  s :     0.000332
      pz      :     0.009004  p :     0.023498
      px      :     0.013677
      py      :     0.000817
      dz2     :     0.000168  d :     0.000721
      dxz     :     0.000111
      dyz     :     0.000058
      dx2y2   :     0.000331
      dxy     :     0.000053

  5 H s       :     0.000691  s :     0.000691
      pz      :    -0.000523  p :    -0.001770
      px      :    -0.000979
      py      :    -0.000267

  6 H s       :     0.021472  s :     0.021472
      pz      :    -0.000009  p :    -0.001047
      px      :    -0.000764
      py      :    -0.000273

  7 H s       :     0.035696  s :     0.035696
      pz      :     0.001429  p :     0.002800
      px      :     0.001162
      py      :     0.000209

  8 H s       :    -0.015010  s :    -0.015010
      pz      :     0.050219  p :     0.055189
      px      :     0.003559
      py      :     0.001412

  9 H s       :    -0.000736  s :    -0.000736
      pz      :     0.001166  p :     0.001638
      px      :     0.000465
      py      :     0.000007



                      *****************************
                      * MAYER POPULATION ANALYSIS *
                      *****************************

  NA   - Mulliken gross atomic population
  ZA   - Total nuclear charge
  QA   - Mulliken gross atomic charge
  VA   - Mayer's total valence
  BVA  - Mayer's bonded valence
  FA   - Mayer's free valence

  ATOM       NA         ZA         QA         VA         BVA        FA
  0 C      4.0629     4.0000    -0.0629     3.9717     3.9686     0.0032
  1 C      3.9509     4.0000     0.0491     3.9025     3.1812     0.7212
  2 C      3.7001     4.0000     0.2999     4.1261     4.1253     0.0008
  3 O      6.2097     6.0000    -0.2097     2.1319     2.1279     0.0041
  4 O      6.3031     6.0000    -0.3031     2.0722     2.0714     0.0007
  5 H      0.9528     1.0000     0.0472     1.0380     1.0380     0.0000
  6 H      0.9265     1.0000     0.0735     1.0319     1.0311     0.0008
  7 H      0.9527     1.0000     0.0473     1.0347     1.0315     0.0032
  8 H      0.9658     1.0000     0.0342     1.0511     1.0497     0.0015
  9 H      0.9754     1.0000     0.0246     1.0481     1.0481     0.0000

  Mayer bond orders larger than 0.100000
B(  0-C ,  1-C ) :   1.0435 B(  0-C ,  5-H ) :   0.9867 B(  0-C ,  6-H ) :   0.9711 
B(  0-C ,  7-H ) :   0.9663 B(  1-C ,  3-O ) :   0.9719 B(  1-C ,  8-H ) :   1.0383 
B(  2-C ,  3-O ) :   1.1145 B(  2-C ,  4-O ) :   1.9481 B(  2-C ,  9-H ) :   1.0331 


-------
TIMINGS
-------

Total SCF time: 0 days 0 hours 1 min 3 sec 

Total time                  ....      63.503 sec
Sum of individual times     ....      63.484 sec  (100.0%)

SCF preparation             ....       0.087 sec  (  0.1%)
Fock matrix formation       ....      63.175 sec  ( 99.5%)
  Startup                   ....       0.003 sec  (  0.0% of F)
  Split-RI-J                ....       2.316 sec  (  3.7% of F)
  Chain of spheres X        ....      53.112 sec  ( 84.1% of F)
  XC integration            ....       6.496 sec  ( 10.3% of F)
    Basis function eval.    ....       1.768 sec  ( 27.2% of XC)
    Density eval.           ....       1.439 sec  ( 22.2% of XC)
    XC-Functional eval.     ....       1.009 sec  ( 15.5% of XC)
    XC-Potential eval.      ....       2.108 sec  ( 32.5% of XC)
Diagonalization             ....       0.000 sec  (  0.0%)
Density matrix formation    ....       0.049 sec  (  0.1%)
Total Energy calculation    ....       0.003 sec  (  0.0%)
Population analysis         ....       0.004 sec  (  0.0%)
Orbital Transformation      ....       0.008 sec  (  0.0%)
Orbital Orthonormalization  ....       0.000 sec  (  0.0%)
DIIS solution               ....       0.147 sec  (  0.2%)
SOSCF solution              ....       0.013 sec  (  0.0%)
Finished LeanSCF after  63.5 sec

Maximum memory used throughout the entire LEANSCF-calculation: 14.3 MB


-------------------------------------------------------------------------------
                          DFT DISPERSION CORRECTION                            
                                                                               
                                DFTD4 V3.4.0                                   
-------------------------------------------------------------------------------
The wB97X-3c composite method is recognized
Using three-body term ABC
Active option DFTDOPT                   ...         5   

-------------------------   ----------------
Dispersion correction           -0.007356585
-------------------------   ----------------


-------------------------   --------------------
FINAL SINGLE POINT ENERGY       -52.155410552798
-------------------------   --------------------


------------------------------------------------------------------------------
                              ORCA PROPERTY CALCULATIONS
------------------------------------------------------------------------------

GBWName                                 ... orca.gbw
Number of atoms                         ...     10
Number of basis functions               ...     90
Max core memory                         ...   8000 MB

Electric properties:
Dipole moment                           ... YES
Quadrupole moment                       ...  NO
Static polarizability (Dipole/Dipole)   ...  NO
Static polarizability (Dipole/Quad.)    ...  NO
Static polarizability (Quad./Quad.)     ...  NO
Static polarizability (Velocity)        ...  NO

Atomic electric properties:
Dipole moment                           ...  NO
Quadrupole moment                       ...  NO
Static polarizability                   ...  NO

Choice of electric origin               ... Center of mass
Position of electric origin             ...     0.048395    -0.076458     0.093810

General magnetic properties:
Magnetizability                         ...  NO

EPR properties:
g-Tensor (aka g-matrix)                 ...  NO
Zero-Field splitting spin-orbit         ...  NO
Zero-field splitting spin-spin          ...  NO
Hyperfine couplings                     ...  NO (   0 nuclei)
Quadrupole couplings                    ...  NO (   0 nuclei)
Contact density                         ...  NO (   0 nuclei)

NMR properties:
Chemical shifts                         ...  NO (   0 nuclei)
Spin-rotation constants                 ...  NO (   0 nuclei)
Spin-spin couplings                     ...  NO (   0 nuclei,    0 pairs)

Choice of magnetic origin               ... GIAO
Position of magnetic origin             ...     0.000000     0.000000     0.000000

Properties with geometric perturbations:
SCF Hessian                             ...  NO
IR spectrum                             ...  NO
VCD spectrum                            ...  NO
X-ray spectroscopy properties:
SCF XES/XAS/RIXS spectra                ...  NO


-------------
DIPOLE MOMENT
-------------

Method             : SCF
Type of density    : Electron Density
Multiplicity       :   2
Irrep              :   0
Energy             :   -52.1480539681090605 Eh
Relativity type    : 
Basis              : AO
                                X                 Y                 Z
Electronic contribution:      1.488599467       4.081170159       1.012146370
Nuclear contribution   :     -1.109823466      -4.393299801      -1.638376234
                        -----------------------------------------
Total Dipole Moment    :      0.378776002      -0.312129642      -0.626229864
                        -----------------------------------------
Magnitude (a.u.)       :      0.795650687
Magnitude (Debye)      :      2.022383325



--------------------
Rotational spectrum 
--------------------
 
Rotational constants in cm-1:             0.329005             0.145847             0.108829 
Rotational constants in MHz :          9863.325159          4372.379855          3262.616915 

Dipole components along the rotational axes: 
x,y,z [a.u.] :     0.507122     0.517877     0.328162 
x,y,z [Debye]:     1.289002     1.316340     0.834121 

 

Dipole moment calculation done in   0.0 sec 

Maximum memory used throughout the entire PROP-calculation: 7.8 MB

--------------------------------
SUGGESTED CITATIONS FOR THIS RUN
--------------------------------

Below you find a list of papers that are relevant to this ORCA run
We neither can nor want to force you to cite these papers, but we appreciate if you do
You receive ORCA, which is the product of decades of hard work by many enthusiastic individuals, for free
The only thing we kindly ask in return is that you cite our papers,
We deeply appreciate it, if you show your appreciation for ORCA by not just citing the generic ORCA reference.

Please note that relegating all ORCA citations to the supporting information does *not* help us.
SI sections are not indexed - citations you put there will not count into any citation statistics
But we need these citations in order to attract the funding resources that allow us to do what we are doing

Therefore, if you are a happy ORCA user, please consider citing a few of the papers listed below in the main body of your paper

In addition to the list printed below, the program has created the file orca.bibtex that contains the list in bibtex format
You can import this file easily into all common literature databanks and citation aid programs


List of essential papers. We consider these as the minimum necessary citations

  1. Neese,F.
     Software update: the ORCA program system, version 5.0
     WIRES Comput. Molec. Sci., 2022 12(1)e1606
     doi.org/10.1002/wcms.1606
  2. Mueller,M.; Hansen,A.; Grimme,S.
     wB97X-3c: A composite range-separated hybrid DFT method with a molecule-optimized polarized valence double-zeta basis set
     J. Chem. Phys., 2023 158 014103
     doi.org/10.1063/5.0133026

List of papers to cite with high priority. The work reported in these papers was absolutely
necessary for this run to complete.
Our perspective: the developers of density functionals and basis sets usually get cited in chemistry papers
Good! But without the algorithms to do something with them, the functionals or basis sets would not do anything.
Hence, in our opinion, the algorithm design and method developments papers are equally worthy of getting cited

  1. Neese,F.
     An improvement of the resolution of the identity approximation for the formation of the Coulomb matrix
     J. Comp. Chem., 2003 24(14)1740-1747
     doi.org/10.1002/jcc.10318
  2. Neese,F.; Wennmohs,F.; Hansen,A.; Becker,U.
     Efficient, approximate and parallel Hartree-Fock and hybrid DFT calculations. A 'chain-of-spheres' algorithm for the Hartree-Fock exchange
     Chem. Phys., 2009 356(1-3)98-109
     doi.org/10.1016/j.chemphys.2008.10.036
  3. Helmich-Paris,B.; de Souza,B.; Neese,F.; Izsák,R.
     An improved chain of spheres for exchange algorithm
     J. Chem. Phys., 2021 155 104109
     doi.org/doi: 10.1063/5.0058766.
  4. Neese,F.
     The SHARK Integral Generation and Digestion System
     J. Comp. Chem., 2022  1-16
     doi.org/10.1002/jcc.26942
  5. Caldeweyher,E.; Bannwarth,C.; Grimme,S.
     Extension of the D3 dispersion coefficient model
     J. Chem. Phys., 2017 147 034112
     doi.org/10.1063/1.4993215
  6. Caldeweyher,E.; Ehlert,S.; Hansen,A.; Neugebauer,H.; Spicher,S.; Bannwarth,C.; Grimme,S.
     A generally applicable atomic-charge dependent London dispersion correction
     J. Chem. Phys., 2019 150 154122
     doi.org/10.1063/1.5090222
  7. Caldeweyher,E.; Mewes,J.; Ehlert,S.; Grimme,S.
     Extension and evaluation of the D4 London-dispersion model for periodic systems
     Phys. Chem. Chem. Phys., 2020 22(16)8499-8512
     doi.org/10.1039/D0CP00502A
  8. Wittmann,L.; Gordiy,I.; Friede,M.; Helmich-Paris,B.; Grimme,S.; Hansen,A.; Bursch,M.
     Extension of the D3 and D4 London Dispersion Corrections to the full Actinides Series
     Phys. Chem. Chem. Phys., 2024 26(32)21379-21394
     doi.org/https://doi.org/10.1039/D4CP01514B 

List of suggested additional citations. These are papers that are important in the 'surrounding' of 
of this run, or papers that preceded the highly important papers. If you like your results we are grateful for a citation.

  1. Izsak,R.; Neese,F.
     An overlap fitted chain of spheres exchange method
     J. Chem. Phys., 2011 135 144105
     doi.org/10.1063/1.3646921
  2. Izsak,R.; Hansen,A.; Neese,F.
     The resolution of identity and chain of spheres approximations for the LPNO-CCSD singles Fock term
     Molec. Phys., 2012 110 2413-2417
     doi.org/10.1080/00268976.2012.687466
  3. Neese,F.
     The ORCA program system
     WIRES Comput. Molec. Sci., 2012 2(1)73-78
     doi.org/10.1002/wcms.81
  4. Izsak,R.; Neese,F.; Klopper,W.
     Robust fitting techniques in the chain of spheres approximation to the Fock exchange: The role of the complementary space
     J. Chem. Phys., 2013 139 
     doi.org/10.1063/1.4819264
  5. Neese,F.
     Software update: the ORCA program system, version 4.0
     WIRES Comput. Molec. Sci., 2018 8(1)1-6
     doi.org/10.1002/wcms.1327
  6. Neese,F.; Wennmohs,F.; Becker,U.; Riplinger,C.
     The ORCA quantum chemistry program package
     J. Chem. Phys., 2020 152 Art. No. L224108
     doi.org/10.1063/5.0004608

List of optional additional citations

  1. Neese,F.
     Approximate second-order SCF convergence for spin unrestricted wavefunctions
     Chem. Phys. Lett., 2000 325(1-3)93-98
     doi.org/10.1016/s0009-2614(00)00662-x

Timings for individual modules:

Sum of individual times          ...       66.003 sec (=   1.100 min)
Startup calculation              ...        1.109 sec (=   0.018 min)   1.7 %
SCF iterations                   ...       64.810 sec (=   1.080 min)  98.2 %
Property calculations            ...        0.084 sec (=   0.001 min)   0.1 %
                             ****ORCA TERMINATED NORMALLY****
TOTAL RUN TIME: 0 days 0 hours 1 minutes 6 seconds 151 msec
