 Entering Gaussian System
 *********************************************
 Gaussian 98:
 frequency output generated by the xtb code
 *********************************************
                         Standard orientation:
 --------------------------------------------------------------------
  Center     Atomic     Atomic              Coordinates (Angstroms)
  Number     Number      Type              X           Y           Z
 --------------------------------------------------------------------
    1          6             0       -0.025881   -2.227538   -0.353254
    2          6             0        0.646209   -1.221148    0.530169
    3          6             0       -0.292587    1.071861    0.058028
    4          8             0        0.461584    0.172870   -0.042503
    5          8             0       -0.951113    1.981772    0.093432
    6          1             0        0.380293   -2.214429   -1.361725
    7          1             0        0.175878   -3.211252    0.070833
    8          1             0       -1.104455   -2.094208   -0.389943
    9          1             0        1.732594   -1.331042    0.543906
   10          1             0        0.240689   -1.189022    1.543365
 --------------------------------------------------------------------
     1 basis functions        1 primitive gaussians
     1 alpha electrons        1 beta electrons

 Harmonic frequencies (cm**-1), IR intensities (km*mol⁻¹),
 Raman scattering activities (A**4/amu), Raman depolarization ratios,
 reduced masses (AMU), force constants (mDyne/A) and normal coordinates:
                      1                      2                      3
                        a                      a                      a 
 Frequencies --    48.8793               145.3589               233.5817
 Red. masses --    12.3345                12.0040                 2.4418
 Frc consts  --     0.0000                 0.0000                 0.0000
 IR Inten    --     0.5200                 4.1411                 0.9611
 Raman Activ --     0.0000                 0.0000                 0.0000
 Depolar     --     0.0000                 0.0000                 0.0000
 Atom AN      X      Y      Z        X      Y      Z        X      Y      Z
   1   6    -0.35   0.28  -0.04    -0.08   0.13   0.06     0.00   0.06  -0.00
   2   6     0.19  -0.04  -0.07    -0.24   0.15   0.14    -0.20   0.03   0.17
   3   6     0.04  -0.10   0.02     0.17  -0.05  -0.13     0.08  -0.01  -0.08
   4   8     0.40   0.15   0.39     0.39   0.11  -0.43     0.09  -0.02  -0.12
   5   8    -0.24  -0.31  -0.27    -0.18  -0.36   0.31     0.02  -0.08   0.03
   6   1    -0.20   0.11  -0.05     0.13  -0.07   0.08    -0.29   0.42  -0.11
   7   1    -0.12   0.05  -0.08    -0.17   0.05   0.12     0.47  -0.03  -0.34
   8   1    -0.10   0.15   0.10    -0.01   0.12  -0.15    -0.05  -0.33   0.35
   9   1     0.05  -0.09  -0.13    -0.08  -0.03   0.19    -0.06  -0.00   0.12
  10   1     0.16  -0.04   0.02    -0.21   0.15  -0.02    -0.13   0.04   0.02
                      4                      5                      6
                        a                      a                      a 
 Frequencies --   342.2527               524.0209               541.3940
 Red. masses --    11.1033                12.0262                12.4460
 Frc consts  --     0.0000                 0.0000                 0.0000
 IR Inten    --    13.9686                54.4878                72.7798
 Raman Activ --     0.0000                 0.0000                 0.0000
 Depolar     --     0.0000                 0.0000                 0.0000
 Atom AN      X      Y      Z        X      Y      Z        X      Y      Z
   1   6    -0.03  -0.50   0.03    -0.00   0.03  -0.01    -0.01  -0.03  -0.01
   2   6    -0.19  -0.16  -0.25     0.18  -0.50   0.27    -0.12   0.32  -0.18
   3   6     0.10   0.26  -0.02     0.41   0.47   0.05     0.30   0.07   0.74
   4   8     0.30   0.42   0.17    -0.20  -0.00  -0.21    -0.07  -0.14  -0.14
   5   8    -0.18   0.10   0.03    -0.32  -0.00  -0.05    -0.05  -0.18  -0.32
   6   1    -0.04  -0.24  -0.01     0.02   0.09   0.00    -0.02  -0.05  -0.01
   7   1     0.14  -0.07   0.14    -0.10  -0.07  -0.12     0.06   0.04   0.07
   8   1    -0.03  -0.29   0.04     0.01   0.11   0.00    -0.01  -0.07  -0.01
   9   1    -0.05  -0.04  -0.05     0.06  -0.06   0.02    -0.04   0.03  -0.01
  10   1    -0.07  -0.02  -0.08     0.05  -0.07   0.07    -0.04   0.05  -0.05
                      7                      8                      9
                        a                      a                      a 
 Frequencies --   652.8729               808.7446               950.8631
 Red. masses --    13.1786                 2.1592                 5.5997
 Frc consts  --     0.0000                 0.0000                 0.0000
 IR Inten    --    80.7153                 7.6068                85.9142
 Raman Activ --     0.0000                 0.0000                 0.0000
 Depolar     --     0.0000                 0.0000                 0.0000
 Atom AN      X      Y      Z        X      Y      Z        X      Y      Z
   1   6    -0.01  -0.02   0.02     0.07  -0.01  -0.04    -0.06  -0.52   0.00
   2   6     0.09  -0.35   0.16     0.25  -0.01  -0.16     0.10   0.35   0.07
   3   6    -0.44  -0.24   0.43    -0.00   0.01  -0.01    -0.00   0.03  -0.00
   4   8     0.22   0.34  -0.37    -0.06  -0.03   0.05     0.06   0.02   0.03
   5   8     0.10   0.19  -0.17    -0.02   0.02   0.01    -0.03   0.03   0.01
   6   1     0.01   0.05   0.01    -0.32  -0.21  -0.14    -0.02   0.22  -0.00
   7   1    -0.05  -0.06  -0.08    -0.11   0.00   0.06    -0.32  -0.37  -0.45
   8   1     0.00   0.04   0.01     0.03   0.24   0.33     0.02   0.20  -0.06
   9   1     0.02  -0.06   0.09     0.07   0.13   0.50     0.03   0.10   0.07
  10   1    -0.04   0.03   0.01    -0.45  -0.11  -0.24     0.06   0.16   0.03
                     10                     11                     12
                        a                      a                      a 
 Frequencies --  1075.6960              1091.9660              1183.2156
 Red. masses --     3.6627                 8.5475                 3.2725
 Frc consts  --     0.0000                 0.0000                 0.0000
 IR Inten    --    20.6080                12.3215                 1.1010
 Raman Activ --     0.0000                 0.0000                 0.0000
 Depolar     --     0.0000                 0.0000                 0.0000
 Atom AN      X      Y      Z        X      Y      Z        X      Y      Z
   1   6    -0.19   0.04   0.14    -0.29  -0.15  -0.45    -0.33   0.02   0.15
   2   6     0.31  -0.03  -0.23     0.31   0.25   0.46     0.20  -0.05  -0.09
   3   6    -0.02   0.02  -0.01    -0.02   0.01  -0.01     0.03  -0.02  -0.00
   4   8    -0.08  -0.08   0.09     0.01  -0.02  -0.06    -0.02   0.07  -0.01
   5   8    -0.05   0.07   0.01    -0.03   0.05   0.01     0.05  -0.07  -0.00
   6   1     0.20   0.14   0.13    -0.11  -0.29  -0.13     0.25   0.18   0.17
   7   1     0.14   0.01  -0.06     0.11   0.11   0.16     0.11   0.00  -0.06
   8   1    -0.05  -0.17  -0.22    -0.10  -0.27  -0.10    -0.10  -0.24  -0.28
   9   1     0.02  -0.52   0.28     0.08  -0.04   0.15     0.11   0.59   0.12
  10   1    -0.15   0.44  -0.17     0.11   0.01   0.14    -0.16  -0.34  -0.10
                     13                     14                     15
                        a                      a                      a 
 Frequencies --  1219.2056              1363.7946              1390.7704
 Red. masses --     3.4525                 7.6512                 8.6635
 Frc consts  --     0.0000                 0.0000                 0.0000
 IR Inten    --    27.0644                70.4566                20.5712
 Raman Activ --     0.0000                 0.0000                 0.0000
 Depolar     --     0.0000                 0.0000                 0.0000
 Atom AN      X      Y      Z        X      Y      Z        X      Y      Z
   1   6    -0.03   0.02  -0.15     0.07   0.11   0.08    -0.06  -0.24  -0.09
   2   6    -0.05  -0.25  -0.00     0.13   0.08   0.17    -0.01   0.03  -0.04
   3   6     0.06  -0.05   0.01     0.06  -0.03  -0.03     0.05  -0.02  -0.03
   4   8    -0.14   0.12   0.11    -0.30   0.37   0.03    -0.32   0.43  -0.00
   5   8     0.13  -0.17  -0.01     0.23  -0.32  -0.01     0.25  -0.34  -0.01
   6   1     0.00  -0.08  -0.04    -0.09  -0.24  -0.03     0.02   0.36   0.00
   7   1     0.01   0.04   0.05    -0.15  -0.13  -0.23     0.13   0.12   0.30
   8   1    -0.01  -0.00   0.08    -0.01  -0.22  -0.07     0.03   0.27   0.02
   9   1     0.05   0.48   0.00     0.00  -0.18  -0.37    -0.02  -0.18   0.22
  10   1     0.07   0.74   0.01    -0.37  -0.03  -0.13     0.18  -0.15   0.07
                     16                     17                     18
                        a                      a                      a 
 Frequencies --  1391.9685              1428.5386              1451.6601
 Red. masses --     2.9927                 1.4899                 1.8437
 Frc consts  --     0.0000                 0.0000                 0.0000
 IR Inten    --    25.9279                30.8107                14.7721
 Raman Activ --     0.0000                 0.0000                 0.0000
 Depolar     --     0.0000                 0.0000                 0.0000
 Atom AN      X      Y      Z        X      Y      Z        X      Y      Z
   1   6    -0.07  -0.22  -0.11     0.16   0.03  -0.12    -0.17   0.01  -0.20
   2   6     0.13   0.01   0.18     0.04   0.00  -0.04     0.00   0.07   0.01
   3   6    -0.02   0.00   0.01    -0.00   0.00   0.00     0.00  -0.00  -0.00
   4   8     0.10  -0.14   0.01     0.01  -0.02   0.00    -0.02   0.03  -0.00
   5   8    -0.08   0.10   0.00    -0.01   0.02   0.00     0.01  -0.02  -0.00
   6   1     0.03   0.33   0.00     0.02   0.40  -0.01     0.63  -0.15   0.23
   7   1     0.15   0.14   0.31    -0.62   0.02   0.32     0.02  -0.04  -0.14
   8   1     0.02   0.26   0.02    -0.06  -0.52   0.20    -0.04   0.04   0.65
   9   1     0.03   0.03  -0.51     0.01  -0.01   0.03    -0.01  -0.07  -0.04
  10   1    -0.47   0.10  -0.18    -0.01   0.01  -0.02    -0.03  -0.06  -0.01
                     19                     20                     21
                        a                      a                      a 
 Frequencies --  2517.8146              2976.1443              2988.2894
 Red. masses --    13.1358                 1.5583                 1.9898
 Frc consts  --     0.0000                 0.0000                 0.0000
 IR Inten    --  1349.2992                 1.0457                 9.7978
 Raman Activ --     0.0000                 0.0000                 0.0000
 Depolar     --     0.0000                 0.0000                 0.0000
 Atom AN      X      Y      Z        X      Y      Z        X      Y      Z
   1   6    -0.00  -0.01   0.00    -0.00   0.01  -0.02     0.03  -0.01  -0.01
   2   6    -0.01   0.01   0.00     0.02  -0.00   0.22    -0.28   0.03   0.10
   3   6     0.51  -0.68  -0.03     0.00  -0.01  -0.00    -0.00   0.00  -0.00
   4   8    -0.16   0.21   0.01    -0.00  -0.00   0.00    -0.00   0.00   0.00
   5   8    -0.27   0.37   0.01    -0.00   0.00   0.00     0.00  -0.00  -0.00
   6   1     0.00   0.01  -0.00    -0.03   0.00   0.06    -0.01  -0.00   0.05
   7   1     0.00  -0.01   0.00     0.01  -0.05   0.02    -0.00   0.03  -0.01
   8   1    -0.00   0.00  -0.00     0.02  -0.00  -0.00    -0.09   0.01  -0.00
   9   1     0.00  -0.00   0.00    -0.40   0.05   0.02     0.86  -0.09   0.01
  10   1     0.00  -0.01   0.01     0.35  -0.02  -0.81     0.13  -0.01  -0.36
                     22                     23                     24
                        a                      a                      a 
 Frequencies --  3027.5727              3056.2749              3062.6293
 Red. masses --     1.7992                 1.4923                 1.9134
 Frc consts  --     0.0000                 0.0000                 0.0000
 IR Inten    --    16.4438                 1.4858                 0.4007
 Raman Activ --     0.0000                 0.0000                 0.0000
 Depolar     --     0.0000                 0.0000                 0.0000
 Atom AN      X      Y      Z        X      Y      Z        X      Y      Z
   1   6    -0.06   0.23  -0.12    -0.19   0.00  -0.09    -0.19   0.03   0.21
   2   6    -0.01   0.01  -0.01    -0.02  -0.00  -0.01    -0.03   0.00   0.02
   3   6    -0.00   0.00   0.00     0.00  -0.00  -0.00    -0.00   0.00   0.00
   4   8     0.00  -0.00   0.00    -0.00   0.00  -0.00     0.00  -0.00   0.00
   5   8     0.00  -0.00  -0.00    -0.00   0.00   0.00     0.00  -0.00  -0.00
   6   1    -0.05   0.02   0.08    -0.17  -0.00   0.36     0.32   0.02  -0.81
   7   1     0.18  -0.86   0.37    -0.04   0.11  -0.05    -0.01  -0.06   0.05
   8   1     0.06   0.02  -0.01     0.87  -0.11   0.02     0.38  -0.05   0.03
   9   1     0.05  -0.01  -0.00     0.07  -0.01  -0.00     0.06  -0.01   0.00
  10   1    -0.02   0.00   0.04    -0.01   0.00   0.01     0.03  -0.00  -0.07
