10
 energy: -16.613739263467 gnorm: 0.032827496498 xtb: 6.7.1 (edcfbbe)
C           -0.02588126676716       -2.22753730192903       -0.35325367865067
C            0.64620868254935       -1.22114769774203        0.53016936750698
C           -0.29258699400697        1.07186092331234        0.05802840777407
O            0.46158410208942        0.17287020459514       -0.04250281092917
O           -0.95111329492216        1.98177166230052        0.09343223422351
H            0.38029261471582       -2.21442862730914       -1.36172516103856
H            0.17587839649783       -3.21125198538281        0.07083312490433
H           -1.10445487350921       -2.09420796484496       -0.38994301038906
H            1.73259398185459       -1.33104161784342        0.54390601354474
H            0.24068851573039       -1.18902171114897        1.54336482422847
