10
 energy: -16.620397644460 gnorm: 0.032828093789 xtb: 6.7.1 (edcfbbe)
C           -0.01721816145755       -2.27142864056403       -0.34424624141199
C            0.63843809526125       -1.28856751773771        0.52385591152025
C           -0.28208722350327        1.12365352937912        0.03777228207725
O            0.44177235362987        0.21932612576160       -0.21592948849206
O           -0.94997355682650        2.01058145869744        0.25224407608968
H            0.41500497647855       -2.29728608524971       -1.34036312335007
H            0.19775135868417       -3.23372794805161        0.13357817965943
H           -1.09651575652445       -2.15640241459553       -0.38084000936323
H            1.72176320344712       -1.27596915040131        0.53286298669448
H            0.19432589081080       -1.09230806723826        1.49336123657625
10
 energy: -16.621507806673 gnorm: 0.021108455613 xtb: 6.7.1 (edcfbbe)
C           -0.01636228239899       -2.26633807462455       -0.34257854841960
C            0.63150097644844       -1.26733016693554        0.51450466225775
C           -0.26321407729146        1.13371047277052        0.05993344557676
O            0.44011112652059        0.22858963986428       -0.19940746079445
O           -0.95537741509571        2.00478055883238        0.22680388565020
H            0.41109025889109       -2.29645812309945       -1.34174086675409
H            0.20026130673129       -3.23204368459432        0.12957311951093
H           -1.09751714256294       -2.16135439415565       -0.38510385842530
H            1.71953620015492       -1.29218600634058        0.53169034690482
H            0.19323222860279       -1.11349893171709        1.49862108449294
10
 energy: -16.617969696411 gnorm: 0.072790655476 xtb: 6.7.1 (edcfbbe)
C           -0.00290360927603       -2.25226510614084       -0.32261357791259
C            0.62506220572779       -1.19442114139579        0.49373694495417
C           -0.33993358472679        1.08860218876169       -0.02893326281068
O            0.40879930373870        0.22354623191156       -0.18615564842665
O           -0.88753811536564        2.01566570471029        0.26723006969313
H            0.39908484981179       -2.29915773891824       -1.33550471571599
H            0.22549675613292       -3.22146561135415        0.13997258002383
H           -1.09032265762216       -2.17936149413093       -0.37357569828058
H            1.72513944022244       -1.30383400271684        0.52621182836754
H            0.20037659135693       -1.13943774072670        1.51192729010787
10
 energy: -16.623083498141 gnorm: 0.029221297002 xtb: 6.7.1 (edcfbbe)
C           -0.01131530300890       -2.25866728894590       -0.33600242997180
C            0.62660068780947       -1.22663546744905        0.50472585804078
C           -0.28697562221052        1.10891014705679        0.03922964743347
O            0.42261307233156        0.20379842239195       -0.17099545060434
O           -0.92254162403535        2.00957476411361        0.22507536711297
H            0.40129082270430       -2.29241476218562       -1.34316241381443
H            0.21374589159613       -3.22503827714393        0.12880613247014
H           -1.09549728910306       -2.17063253442788       -0.38431731043445
H            1.71925402289828       -1.28976143063609        0.52510387968456
H            0.19608652101809       -1.12126228277389        1.50383253008309
10
 energy: -16.623854278495 gnorm: 0.017824640292 xtb: 6.7.1 (edcfbbe)
C           -0.01359793315615       -2.25545125438181       -0.34051215059734
C            0.62668312628245       -1.21985011857235        0.50642277992869
C           -0.27361772706386        1.10681298366020        0.06060654567846
O            0.42075120923529        0.18187103681660       -0.14685064426500
O           -0.92960759204127        2.01318741755510        0.19290015104514
H            0.39671714238644       -2.27822840873580       -1.34862323487060
H            0.21194609659911       -3.22236761371657        0.11836433131058
H           -1.09686660733268       -2.16261438715529       -0.38802165699707
H            1.71807002134472       -1.29256912398924        0.52744365132045
H            0.20278344374596       -1.13291924148086        1.51056603744666
10
 energy: -16.624183729103 gnorm: 0.008101240772 xtb: 6.7.1 (edcfbbe)
C           -0.01438589514712       -2.25280047251089       -0.34250632409236
C            0.62772077613312       -1.20632154793065        0.50613045184826
C           -0.27905054589025        1.09480988362837        0.06188548151213
O            0.41645105938430        0.16160528992136       -0.12354960464117
O           -0.92209175439650        2.01110345224861        0.17522681458637
H            0.39232692604816       -2.26616033867699       -1.35186651384617
H            0.21041624985870       -3.21943077651142        0.11186241097463
H           -1.09667915715852       -2.15342124396530       -0.38889685405769
H            1.71776772797675       -1.29122836207815        0.52929257641640
H            0.21078579319139       -1.14028459412498        1.51471737129956
10
 energy: -16.624255306302 gnorm: 0.005118229074 xtb: 6.7.1 (edcfbbe)
C           -0.01504399656082       -2.25277116564643       -0.34389927682950
C            0.63041838678680       -1.20660277291281        0.50919405129627
C           -0.28649685723667        1.09251676574917        0.05605909509452
O            0.41516140976792        0.16060017767103       -0.11854019544741
O           -0.92093966386470        2.01358854407779        0.16895550961522
H            0.39229202064142       -2.25977007316125       -1.35232411519652
H            0.20748006779218       -3.21955500362418        0.10852130244171
H           -1.09631126022714       -2.14592107944456       -0.38732597388122
H            1.71908551793901       -1.29383779529111        0.53221902670899
H            0.21761555496200       -1.15037630741766        1.51943638619790
10
 energy: -16.624291334077 gnorm: 0.003292268618 xtb: 6.7.1 (edcfbbe)
C           -0.01618240198982       -2.25181705265695       -0.34554475103267
C            0.63291927250758       -1.20767969321669        0.51209017277431
C           -0.28945394537846        1.08999323481128        0.05592399770265
O            0.41799961585591        0.16173928260256       -0.10878641946492
O           -0.92304368119549        2.01266654801882        0.15905874815658
H            0.39191016326306       -2.25447623977638       -1.35311216358528
H            0.20262297113747       -3.21997580866154        0.10415095966823
H           -1.09668352592397       -2.13835992307902       -0.38733339995291
H            1.72108017341128       -1.29692436954341        0.53343863376395
H            0.22209253831247       -1.15729468849869        1.52241003197001
10
 energy: -16.624334169422 gnorm: 0.003729619829 xtb: 6.7.1 (edcfbbe)
C           -0.01863680377402       -2.24707428378414       -0.34852575884539
C            0.63753030994837       -1.21141242558277        0.51835829746398
C           -0.29288371203956        1.08573686080458        0.05787724933379
O            0.42626588357526        0.16450256532970       -0.08823829591116
O           -0.92941199838679        2.00920255408585        0.13733993603599
H            0.39039996862973       -2.24381867030173       -1.35521143885041
H            0.19327297783629       -3.21931753179735        0.09472855023190
H           -1.09816609064703       -2.12433431346738       -0.38837905736446
H            1.72542566443042       -1.30488749195053        0.53485772769170
H            0.22946498042738       -1.17072597333628        1.52948860021398
10
 energy: -16.624362566193 gnorm: 0.003507268356 xtb: 6.7.1 (edcfbbe)
C           -0.02113118922522       -2.24066825328894       -0.35085195282509
C            0.64151691581311       -1.21545653922272        0.52357133115711
C           -0.29519169387955        1.08110428694285        0.06031572059863
O            0.43751882777770        0.16813095472616       -0.06741173721306
O           -0.93666161817561        2.00283913932394        0.11705497339522
H            0.38823452812627       -2.23424225153126       -1.35738059777724
H            0.18444411975632       -3.21743471108118        0.08609753371211
H           -1.10002968049558       -2.11168402341237       -0.39022620129516
H            1.72935630202978       -1.31370475122917        0.53576702737268
H            0.23520466827284       -1.18101256122738        1.53535971287469
10
 energy: -16.624378304254 gnorm: 0.001686305342 xtb: 6.7.1 (edcfbbe)
C           -0.02328822924186       -2.23385064619093       -0.35229537576316
C            0.64411686744110       -1.21856433582986        0.52709478791783
C           -0.29597394079726        1.07658548965407        0.06177105625366
O            0.44840710330955        0.17094666735871       -0.05163173691781
O           -0.94299039489135        1.99495302173669        0.10194051836730
H            0.38570773729156       -2.22619825069779       -1.35933855079725
H            0.17825568726049       -3.21425752106529        0.07953340717686
H           -1.10191524498923       -2.10210122954428       -0.39199022501185
H            1.73173865342604       -1.32168024437195        0.53711108164973
H            0.23920294119102       -1.18796166104943        1.54010084712458
10
 energy: -16.624382943031 gnorm: 0.001404158420 xtb: 6.7.1 (edcfbbe)
C           -0.02474538464271       -2.22896085485244       -0.35289478508761
C            0.64543588467951       -1.22039288828172        0.52855920572990
C           -0.29528927715874        1.07329566940744        0.06183040671630
O            0.45627518922763        0.17242741816722       -0.04346473647209
O           -0.94755862233280        1.98774222684997        0.09442245630691
H            0.38331739699825       -2.22060093423656       -1.36076282059650
H            0.17547013623858       -3.21142371996450        0.07555948698592
H           -1.10333096219299       -2.09653675945134       -0.39275798942333
H            1.73253468613664       -1.32766406358473        0.53950083357386
H            0.24115213304672       -1.19001480405340        1.54230375226652
10
 energy: -16.624384878261 gnorm: 0.001056999281 xtb: 6.7.1 (edcfbbe)
C           -0.02510289269650       -2.22844719965007       -0.35308694566070
C            0.64561988425108       -1.22061150245946        0.52911818410157
C           -0.29453661156002        1.07294653729505        0.06099206804940
O            0.45777175084004        0.17234312536128       -0.04263064778017
O           -0.94864112975404        1.98641814524744        0.09322603956612
H            0.38232828283785       -2.21846680231433       -1.36121265210544
H            0.17559799500061       -3.21132716863180        0.07395784521581
H           -1.10367490918613       -2.09567352302678       -0.39203697877040
H            1.73244057894174       -1.32868061345713        0.54082376231917
H            0.24145823132544       -1.19062970836427        1.54314513506450
10
 energy: -16.624386750468 gnorm: 0.000513577067 xtb: 6.7.1 (edcfbbe)
C           -0.02586837032065       -2.22753682086496       -0.35325765673618
C            0.64621322581074       -1.22114523950672        0.53016949192020
C           -0.29259280880920        1.07185929003720        0.05802925718031
O            0.46158334529680        0.17287269561980       -0.04250089797989
O           -0.95112399757551        1.98176651918855        0.09343237301023
H            0.38030896274698       -2.21442425941150       -1.36172769841966
H            0.17589496331617       -3.21125118806496        0.07082813420349
H           -1.10444254708219       -2.09421306713959       -0.38995052071512
H            1.73259905254775       -1.33103349528791        0.54390973836881
H            0.24068935406920       -1.18902314456998        1.54336358916769
