 Entering Gaussian System
 *********************************************
 Gaussian 98:
 frequency output generated by the xtb code
 *********************************************
                         Standard orientation:
 --------------------------------------------------------------------
  Center     Atomic     Atomic              Coordinates (Angstroms)
  Number     Number      Type              X           Y           Z
 --------------------------------------------------------------------
    1          6             0       -0.458235   -1.597223   -0.266838
    2          6             0        0.726197   -1.012041    0.385005
    3          6             0        0.031640    1.198334   -0.093193
    4          8             0        0.979958    0.379978    0.021024
    5          8             0       -1.193857    0.954737    0.041632
    6          1             0       -0.559161   -1.516405   -1.338541
    7          1             0       -0.926456   -2.443121    0.205269
    8          1             0       -1.396560   -0.050165    0.131975
    9          1             0        1.660998   -1.522403    0.095516
   10          1             0        0.661194   -1.051015    1.479603
   11          1             0        0.317878    2.229676   -0.336290
 --------------------------------------------------------------------
     1 basis functions        1 primitive gaussians
     1 alpha electrons        1 beta electrons

 Harmonic frequencies (cm**-1), IR intensities (km*mol⁻¹),
 Raman scattering activities (A**4/amu), Raman depolarization ratios,
 reduced masses (AMU), force constants (mDyne/A) and normal coordinates:
                      1                      2                      3
                        a                      a                      a 
 Frequencies --   -80.7359               194.2049               328.4064
 Red. masses --    11.3455                 9.4941                 8.6461
 Frc consts  --     0.0000                 0.0000                 0.0000
 IR Inten    --    34.1592                 0.1319                 6.6937
 Raman Activ --     0.0000                 0.0000                 0.0000
 Depolar     --     0.0000                 0.0000                 0.0000
 Atom AN      X      Y      Z        X      Y      Z        X      Y      Z
   1   6     0.35  -0.50  -0.14     0.07   0.13  -0.27     0.06   0.37  -0.09
   2   6    -0.02  -0.11   0.08    -0.27   0.20   0.32     0.17  -0.11   0.08
   3   6     0.01   0.05  -0.08     0.02  -0.05  -0.13    -0.08  -0.26  -0.46
   4   8    -0.18  -0.10  -0.07     0.07  -0.05  -0.34    -0.01  -0.08   0.33
   5   8    -0.11   0.55   0.16     0.12  -0.22   0.38    -0.12   0.04   0.17
   6   1     0.06  -0.05  -0.02     0.19   0.01  -0.09    -0.03   0.30  -0.01
   7   1     0.08  -0.13  -0.05    -0.03   0.03  -0.14    -0.01   0.05  -0.15
   8   1    -0.19   0.27   0.16     0.07  -0.09  -0.00    -0.09   0.06   0.23
   9   1     0.05   0.03   0.11    -0.04  -0.02   0.34     0.03  -0.01  -0.08
  10   1    -0.08   0.01   0.02    -0.30   0.20   0.09     0.10  -0.13   0.02
  11   1     0.05  -0.01  -0.08    -0.03  -0.02  -0.09    -0.03  -0.13  -0.37
                      4                      5                      6
                        a                      a                      a 
 Frequencies --   448.3808               348.9628               666.4588
 Red. masses --    11.1311                 2.1979                 8.8558
 Frc consts  --     0.0000                 0.0000                 0.0000
 IR Inten    --     8.4927                 8.2437                95.8597
 Raman Activ --     0.0000                 0.0000                 0.0000
 Depolar     --     0.0000                 0.0000                 0.0000
 Atom AN      X      Y      Z        X      Y      Z        X      Y      Z
   1   6    -0.15  -0.38  -0.08     0.07  -0.04  -0.14     0.01   0.03   0.06
   2   6    -0.30   0.15  -0.18     0.06  -0.11  -0.06     0.05  -0.26   0.18
   3   6     0.09   0.17  -0.28    -0.03   0.01  -0.08    -0.00   0.41  -0.17
   4   8     0.11   0.30   0.37    -0.00   0.11   0.12    -0.49  -0.08  -0.02
   5   8     0.24  -0.18   0.15    -0.02   0.00   0.12     0.22  -0.01   0.09
   6   1    -0.18  -0.12  -0.01     0.27  -0.45  -0.09     0.24   0.02  -0.01
   7   1     0.13  -0.17   0.04    -0.53   0.48   0.31     0.02  -0.11  -0.17
   8   1     0.10  -0.04   0.12     0.01   0.00  -0.01     0.36  -0.17  -0.21
   9   1    -0.08   0.06  -0.08     0.02   0.02  -0.07     0.02   0.04  -0.16
  10   1    -0.06  -0.04  -0.05     0.02  -0.03  -0.02     0.18  -0.13   0.05
  11   1    -0.04   0.02  -0.24    -0.02  -0.01  -0.10     0.08   0.09  -0.04
                      7                      8                      9
                        a                      a                      a 
 Frequencies --   707.9731               790.1012               803.7778
 Red. masses --     5.5802                 8.3482                 6.6100
 Frc consts  --     0.0000                 0.0000                 0.0000
 IR Inten    --   101.7566                11.0849                97.5674
 Raman Activ --     0.0000                 0.0000                 0.0000
 Depolar     --     0.0000                 0.0000                 0.0000
 Atom AN      X      Y      Z        X      Y      Z        X      Y      Z
   1   6     0.11  -0.18  -0.02     0.24   0.01  -0.03    -0.08  -0.04   0.04
   2   6    -0.00  -0.30   0.14     0.08   0.34  -0.23     0.18  -0.36  -0.05
   3   6     0.02   0.22   0.09     0.05   0.03  -0.03    -0.09  -0.01  -0.30
   4   8     0.00   0.24  -0.16    -0.36  -0.39   0.15     0.19   0.24   0.06
   5   8     0.08  -0.21  -0.14     0.11  -0.05   0.05    -0.13   0.13   0.20
   6   1    -0.32   0.47   0.07    -0.40   0.14   0.06    -0.20   0.04   0.03
   7   1    -0.39   0.18  -0.04    -0.06   0.21   0.24     0.03  -0.03   0.04
   8   1     0.03   0.04   0.30     0.11  -0.06  -0.18     0.01  -0.08  -0.54
   9   1     0.07   0.02   0.09     0.11   0.11   0.17     0.12  -0.11   0.28
  10   1    -0.05  -0.02   0.04    -0.18   0.05  -0.06    -0.23   0.03  -0.02
  11   1    -0.08   0.08  -0.01     0.13  -0.03  -0.01    -0.03   0.07   0.21
                     10                     11                     12
                        a                      a                      a 
 Frequencies --   858.2229               913.1177              1015.1983
 Red. masses --     4.6582                 3.7682                 5.8221
 Frc consts  --     0.0000                 0.0000                 0.0000
 IR Inten    --    44.1552               110.4083                 3.4027
 Raman Activ --     0.0000                 0.0000                 0.0000
 Depolar     --     0.0000                 0.0000                 0.0000
 Atom AN      X      Y      Z        X      Y      Z        X      Y      Z
   1   6    -0.13   0.26  -0.07     0.04  -0.07  -0.03    -0.34  -0.23   0.16
   2   6     0.20  -0.31  -0.11    -0.02  -0.01   0.08     0.34   0.20  -0.26
   3   6    -0.02   0.16   0.18    -0.02   0.08   0.39     0.00  -0.00   0.06
   4   8    -0.12   0.02  -0.01     0.17   0.00  -0.09    -0.03  -0.04   0.11
   5   8     0.02  -0.01  -0.11    -0.14   0.07   0.01    -0.01   0.01  -0.00
   6   1    -0.06  -0.31  -0.04    -0.11   0.06   0.01     0.33   0.14   0.00
   7   1     0.32  -0.05   0.15    -0.02   0.00   0.00    -0.34  -0.14  -0.35
   8   1     0.14  -0.01   0.37     0.04  -0.08  -0.43     0.04  -0.01   0.04
   9   1     0.17  -0.05   0.33    -0.05  -0.04  -0.07     0.16   0.03   0.24
  10   1    -0.30   0.01  -0.04     0.05  -0.06   0.02    -0.09   0.25  -0.06
  11   1    -0.02  -0.02  -0.26    -0.02  -0.17  -0.72     0.06  -0.05  -0.14
                     13                     14                     15
                        a                      a                      a 
 Frequencies --  1075.8764              1103.5279              1114.9266
 Red. masses --     7.1164                 7.0680                 2.8935
 Frc consts  --     0.0000                 0.0000                 0.0000
 IR Inten    --    46.1729                70.7473                10.1403
 Raman Activ --     0.0000                 0.0000                 0.0000
 Depolar     --     0.0000                 0.0000                 0.0000
 Atom AN      X      Y      Z        X      Y      Z        X      Y      Z
   1   6     0.22   0.18   0.32    -0.33  -0.04  -0.24    -0.02   0.01   0.11
   2   6    -0.28  -0.21  -0.32     0.30   0.07   0.32    -0.18  -0.02  -0.01
   3   6     0.12   0.04   0.04     0.09  -0.06   0.03    -0.04  -0.23   0.03
   4   8    -0.14   0.05   0.02    -0.20   0.05  -0.05     0.14   0.03  -0.09
   5   8     0.21  -0.17   0.03     0.27  -0.10   0.02    -0.05   0.14  -0.02
   6   1     0.28   0.11   0.07    -0.18  -0.13  -0.07     0.05   0.01   0.02
   7   1     0.04   0.01  -0.02     0.03  -0.04   0.02    -0.04  -0.02  -0.05
   8   1    -0.48   0.16  -0.16    -0.46   0.14  -0.17     0.27  -0.09   0.03
   9   1     0.05   0.10   0.03     0.19   0.32  -0.04     0.33   0.68  -0.02
  10   1    -0.18  -0.00  -0.09     0.09  -0.04   0.08    -0.19  -0.38  -0.03
  11   1    -0.17   0.04  -0.12    -0.16   0.03  -0.02     0.03  -0.07   0.03
                     16                     17                     18
                        a                      a                      a 
 Frequencies --  1229.0824              1241.8505              1285.0167
 Red. masses --     5.6058                 2.8512                 9.4763
 Frc consts  --     0.0000                 0.0000                 0.0000
 IR Inten    --    14.5083                 6.6054                16.9089
 Raman Activ --     0.0000                 0.0000                 0.0000
 Depolar     --     0.0000                 0.0000                 0.0000
 Atom AN      X      Y      Z        X      Y      Z        X      Y      Z
   1   6     0.02   0.02  -0.07     0.00  -0.01   0.06     0.08  -0.03   0.06
   2   6    -0.18  -0.23  -0.05     0.11   0.10   0.06     0.10   0.10  -0.00
   3   6    -0.07  -0.34   0.09    -0.07   0.02   0.00    -0.16  -0.46   0.11
   4   8    -0.18   0.29   0.02    -0.09   0.24  -0.10    -0.26   0.26  -0.04
   5   8     0.15   0.04  -0.01     0.01  -0.15   0.02     0.41   0.22  -0.06
   6   1    -0.04   0.05  -0.01     0.01  -0.04   0.01    -0.04  -0.02   0.02
   7   1     0.07   0.02   0.07    -0.03  -0.02  -0.06    -0.07  -0.02  -0.09
   8   1     0.08  -0.02  -0.03    -0.22   0.05   0.01     0.20  -0.04  -0.02
   9   1     0.08   0.15   0.03    -0.10  -0.15  -0.06    -0.17  -0.28  -0.06
  10   1     0.29   0.55   0.03    -0.25  -0.39  -0.02    -0.21  -0.18  -0.03
  11   1     0.39  -0.21  -0.03     0.72  -0.19   0.01    -0.34  -0.06  -0.01
                     19                     20                     21
                        a                      a                      a 
 Frequencies --  1352.5270              1360.6854              1579.0479
 Red. masses --     2.2898                 1.9301                12.8661
 Frc consts  --     0.0000                 0.0000                 0.0000
 IR Inten    --    21.1928                15.1470               579.9070
 Raman Activ --     0.0000                 0.0000                 0.0000
 Depolar     --     0.0000                 0.0000                 0.0000
 Atom AN      X      Y      Z        X      Y      Z        X      Y      Z
   1   6     0.21   0.15   0.14    -0.11  -0.10  -0.06     0.02  -0.01  -0.00
   2   6     0.03  -0.07   0.05     0.18  -0.07   0.12    -0.01  -0.03  -0.00
   3   6     0.07   0.04  -0.01     0.04   0.00  -0.00    -0.78   0.20   0.00
   4   8     0.02  -0.05   0.03     0.01  -0.03   0.02     0.29  -0.24   0.05
   5   8    -0.07  -0.02   0.01    -0.05   0.00  -0.00     0.40   0.07  -0.04
   6   1    -0.36  -0.42   0.03     0.21   0.29  -0.01    -0.01  -0.00   0.00
   7   1    -0.22  -0.12  -0.49     0.16   0.06   0.30    -0.01   0.01  -0.00
   8   1    -0.01   0.00   0.01     0.06  -0.02   0.01    -0.13  -0.01   0.03
   9   1    -0.04   0.10  -0.33    -0.10   0.10  -0.53     0.03   0.06  -0.04
  10   1    -0.25   0.31  -0.00    -0.53   0.29  -0.02    -0.01   0.08   0.00
  11   1     0.02   0.01   0.00     0.00   0.00   0.00     0.06  -0.02   0.01
                     22                     23                     24
                        a                      a                      a 
 Frequencies --  2336.4257              2832.4009              2918.2257
 Red. masses --     1.8547                 1.7630                 1.8079
 Frc consts  --     0.0000                 0.0000                 0.0000
 IR Inten    --   264.7221                30.4374                82.2958
 Raman Activ --     0.0000                 0.0000                 0.0000
 Depolar     --     0.0000                 0.0000                 0.0000
 Atom AN      X      Y      Z        X      Y      Z        X      Y      Z
   1   6     0.04  -0.03  -0.01    -0.01  -0.00  -0.00     0.00   0.00  -0.00
   2   6    -0.01  -0.01  -0.00    -0.21   0.12   0.11     0.00  -0.01  -0.04
   3   6     0.09   0.01  -0.01     0.00   0.01  -0.00     0.07   0.25  -0.06
   4   8    -0.02   0.02   0.00    -0.00   0.01   0.00     0.00   0.01  -0.00
   5   8     0.01   0.22  -0.02     0.00  -0.00   0.00     0.00   0.01  -0.00
   6   1    -0.01   0.02  -0.01     0.00   0.00  -0.00     0.00   0.00  -0.00
   7   1    -0.02  -0.01   0.01    -0.01  -0.00   0.00    -0.01  -0.01   0.01
   8   1    -0.37  -0.88   0.16    -0.00   0.01  -0.00    -0.01  -0.02   0.00
   9   1     0.01  -0.00   0.00     0.80  -0.45  -0.26    -0.01   0.01  -0.00
  10   1     0.00   0.00  -0.00    -0.02   0.02  -0.12    -0.01  -0.00   0.15
  11   1     0.00   0.04  -0.01    -0.01  -0.03   0.01    -0.25  -0.89   0.21
                     25                     26                     27
                        a                      a                      a 
 Frequencies --  2926.1095              3081.7291              3142.6518
 Red. masses --     1.6660                 1.5508                 2.0117
 Frc consts  --     0.0000                 0.0000                 0.0000
 IR Inten    --     2.8185                 5.0483                 5.1862
 Raman Activ --     0.0000                 0.0000                 0.0000
 Depolar     --     0.0000                 0.0000                 0.0000
 Atom AN      X      Y      Z        X      Y      Z        X      Y      Z
   1   6     0.00   0.00  -0.00     0.07   0.06   0.20    -0.10  -0.20   0.20
   2   6     0.01  -0.02   0.24    -0.00   0.00   0.01     0.00  -0.00   0.01
   3   6     0.01   0.04  -0.01    -0.00  -0.00   0.00     0.00   0.00  -0.00
   4   8     0.00  -0.01   0.00    -0.00  -0.00  -0.00    -0.00   0.00  -0.00
   5   8    -0.00   0.00  -0.00    -0.00  -0.00  -0.00    -0.00   0.00   0.00
   6   1     0.00  -0.00   0.03    -0.09   0.08  -0.90    -0.04   0.01  -0.33
   7   1    -0.00  -0.01   0.00    -0.15  -0.28   0.18     0.40   0.70  -0.39
   8   1     0.00  -0.01   0.00     0.00   0.02   0.00    -0.00  -0.01   0.00
   9   1    -0.11   0.06   0.07    -0.01   0.00   0.00     0.00  -0.00   0.00
  10   1     0.07   0.03  -0.94     0.00   0.00  -0.02     0.00   0.00  -0.01
  11   1    -0.04  -0.13   0.03     0.00   0.00   0.00    -0.00  -0.01   0.00
