
                                 *****************
                                 * O   R   C   A *
                                 *****************

                                            #,                                       
                                            ###                                      
                                            ####                                     
                                            #####                                    
                                            ######                                   
                                           ########,                                 
                                     ,,################,,,,,                         
                               ,,#################################,,                 
                          ,,##########################################,,             
                       ,#########################################, ''#####,          
                    ,#############################################,,   '####,        
                  ,##################################################,,,,####,       
                ,###########''''           ''''###############################       
              ,#####''   ,,,,##########,,,,          '''####'''          '####       
            ,##' ,,,,###########################,,,                        '##       
           ' ,,###''''                  '''############,,,                           
         ,,##''                                '''############,,,,        ,,,,,,###''
      ,#''                                            '''#######################'''  
     '                                                          ''''####''''         
             ,#######,   #######,   ,#######,      ##                                
            ,#'     '#,  ##    ##  ,#'     '#,    #''#        ,####,   ,####,        
            ##       ##  ##   ,#'  ##            #'  '#       #'       #'  '#        
            ##       ##  #######   ##           ,######,      #####,   #    #        
            '#,     ,#'  ##    ##  '#,     ,#' ,#      #,     #,   #   #,  ,#        
             '#######'   ##     ##  '#######'  #'      '#     '####' # '####'        



                #########################################################
                #                        -***-                          #
                #          Department of theory and spectroscopy        #
                #                                                       #
                #                      Frank Neese                      #
                #                                                       #
                #     Directorship, Architecture, Infrastructure        #
                #                    SHARK, DRIVERS                     #
                #        Core code/Algorithms in most modules           #
                #                                                       #
                #        Max Planck Institute fuer Kohlenforschung      #
                #                Kaiser Wilhelm Platz 1                 #
                #                 D-45470 Muelheim/Ruhr                 #
                #                      Germany                          #
                #                                                       #
                #                  All rights reserved                  #
                #                        -***-                          #
                #########################################################


                         Program Version 6.0.1  -  RELEASE   -


 With contributions from (in alphabetic order):
[Max-Planck-Institut fuer Kohlenforschung]                               
  Daniel Aravena         : Magnetic Suceptibility                        
  Michael Atanasov       : Ab Initio Ligand Field Theory (pilot matlab implementation)
  Alexander A. Auer      : GIAO ZORA, VPT2 properties, NMR spectrum      
  Ute Becker             : All parallelization in ORCA, NUMFREQ, NUMCALC 
  Giovanni Bistoni       : ED, misc. LED, open-shell LED, HFLD           
  Martin Brehm           : Molecular dynamics                            
  Dmytro Bykov           : pre 5.0 version of the SCF Hessian            
  Marcos Casanova-Páez   : Triplet and SCS-CIS(D). UHF-(DLPNO)-IP/EA/STEOM-CCSD. UHF-CVS-IP/STEOM-CCSD   
  Vijay G. Chilkuri      : MRCI spin determinant printing, contributions to CSF-ICE 
  Pauline Colinet        : FMM embedding                                 
  Dipayan Datta          : RHF DLPNO-CCSD density                        
  Achintya Kumar Dutta   : EOM-CC, STEOM-CC                              
  Nicolas Foglia         : Exact transition moments, OPA infrastructure, MCD improvements    
  Dmitry Ganyushin       : Spin-Orbit,Spin-Spin,Magnetic field MRCI      
  Miquel Garcia-Rates    : C-PCM and meta-GGA Hessian, CCSD/C-PCM, Gaussian charge scheme 
  Tiago L. C. Gouveia    : GS-ROHF, GS-ROCIS                             
  Yang Guo               : DLPNO-NEVPT2, F12-NEVPT2, CIM, IAO-localization        
  Andreas Hansen         : Spin unrestricted coupled pair/coupled cluster methods 
  Ingolf Harden          : AUTO-CI MPn and infrastructure                
  Benjamin Helmich-Paris : MC-RPA, TRAH-(SCF,CASSCF), AVAS, COSX integrals, SCF dyn. polar. 
  Lee Huntington         : MR-EOM, pCC                                   
  Robert Izsak           : Overlap fitted RIJCOSX, COSX-SCS-MP3, EOM     
  Riya Kayal             : Wick's Theorem for AUTO-CI, AUTO-CI UHF-CCSDT 
  Emily Kempfer          : AUTO-CI, RHF CISDT and CCSDT                  
  Christian Kollmar      : KDIIS, OOCD, Brueckner-CCSD(T), CCSD density, CASPT2, CASPT2-K, improved NEVPT2 
  Axel Koslowski         : Symmetry handling                             
  Simone Kossmann        : meta-GGA functionals, TD-DFT gradient, OOMP2, (MP2 Hessian; deprecated post 5.0) 
  Lucas Lang             : DCDCAS                                        
  Marvin Lechner         : AUTO-CI (C++ implementation), FIC-MRCC        
  Spencer Leger          : CASSCF response                               
  Dagmar Lenk            : GEPOL surface, SMD, ORCA-2-JSON               
  Dimitrios Liakos       : Extrapolation schemes; Compound Job, initial MDCI parallelization 
  Dimitrios Manganas     : Further ROCIS development; embedding schemes. LFT, Crystal Embedding 
  Dimitrios Pantazis     : SARC Basis sets                               
  Anastasios Papadopoulos: AUTO-CI, single reference methods and gradients 
  Taras Petrenko         : pre 6.0 DFT Hessian and TD-DFT gradient, (ASA, deprecated), ECA, 1-Electron XAS/XES, NRVS 
  Peter Pinski           : DLPNO-MP2, DLPNO-MP2 Gradient                 
  Christoph Reimann      : Effective Core Potentials                     
  Marius Retegan         : Local ZFS, SOC                                
  Christoph Riplinger    : Optimizer, TS searches, QM/MM, DLPNO-CCSD(T), (RO)-DLPNO pert. Triples 
  Michael Roemelt        : Original ROCIS implementation                 
  Masaaki Saitow         : Open-shell DLPNO-CCSD energy and density      
  Barbara Sandhoefer     : DKH picture change effects                    
  Kantharuban Sivalingam : CASSCF convergence/infrastructure, NEVPT2 and variants, FIC-MRCI 
  Bernardo de Souza      : ESD, SOC TD-DFT                               
  Georgi L. Stoychev     : AutoAux, RI-MP2 NMR, DLPNO-MP2 response, X2C  
  Van Anh Tran           : RI-MP2 g-tensors                              
  Willem Van den Heuvel  : Paramagnetic NMR                              
  Zikuan Wang            : NOTCH, Electric field optimization            
  Frank Wennmohs         : Technical directorship and infrastructure     
  Hang Xu                : AUTO-CI-Response properties                   
                                                                         
[FACCTs GmbH]                                                            
  Markus Bursch, Miquel Garcia-Rates, Christoph Riplinger, Bernardo de Souza, Georgi L. Stoychev 
                                                                 
  APM, Basis sets (HGBS, AHGBS, def-TZVP (Ac-Lr), def2-XVPD (La-Lu)), CI-OPT, improved COSX, DLPNO-Multilevel,           
  DOCKER, DRACO, updates on ESD, GOAT, IRC, LR-CPCM, MBIS, meta-GGA TD-DFT gradient, ML-optimized integration grids, 
  MM, NACMEs, nearIR, NEB, NEB-TS, NL-DFT gradient (VV10), 2- and 3-layer-ONIOM, interface openCOSMO-RS, QMMM,   
  Crystal-QMMM, SF, symmetry and pop. for TD-DFT, r2SCAN hybrids, SOLVATOR                                   
                                                                         
[Other institutions]                                                     
  V. Asgeirsson          : NEB                                           
  Christoph Bannwarth    : sTDA-DFT, sTD-DFT, PBEh-3c, B97-3c, D3        
  Sebastian Ehlert       : rSCAN, r2SCAN, r2SCAN-3c, D4, dhf basis sets  
  Marvin Friede          : D4 for Fr, Ra, Ac-Lr                          
  Lars Goerigk           : TD-DFT with DH, B97 family of functionals     
  Stefan Grimme          : VdW corrections, initial TS optimization, DFT functionals, gCP, sTDA/sTD-DF 
  Waldemar Hujo          : DFT-NL                                        
  H. Jonsson             : NEB                                           
  Holger Kruse           : gCP                                           
  Marcel Mueller         : wB97X-3c, vDZP basis set                      
  Hagen Neugebauer       : wr2SCAN                                       
  Tobias Risthaus        : range-separated hybrid DFT                    
  Lukas Wittmann         : regularized MP2, r2SCAN double-hybrids, wr2SCAN        
                                                                         
We gratefully acknowledge several colleagues who have allowed us to      
interface, adapt or use parts of their codes:                            
  Ed Valeev, F. Pavosevic, A. Kumar             : LibInt (2-el integral package), F12 methods 
  Garnet Chan, S. Sharma, J. Yang, R. Olivares  : DMRG                   
  Ulf Ekstrom                                   : XCFun DFT Library      
  Mihaly Kallay                                 : mrcc  (arbitrary order and MRCC methods)
  Frank Weinhold                                : gennbo (NPA and NBO analysis)           
  Simon Mueller                                 : openCOSMO-RS                            
  Christopher J. Cramer and Donald G. Truhlar   : smd solvation model                     
  S Lehtola, MJT Oliveira, MAL Marques          : LibXC Library                           
  Liviu Ungur et al                             : ANISO software                          


 Your calculation uses the libint2 library for the computation of 2-el integrals
 For citations please refer to: http://libint.valeyev.net

 Your ORCA version has been built with support for libXC version: 6.2.2
 For citations please refer to: https://libxc.gitlab.io

 This ORCA versions uses:
   CBLAS   interface :  Fast vector & matrix operations
   LAPACKE interface :  Fast linear algebra routines
   SCALAPACK package :  Parallel linear algebra routines
   Shared memory     :  Shared parallel matrices
   BLAS/LAPACK       :  OpenBLAS 0.3.27  USE64BITINT DYNAMIC_ARCH NO_AFFINITY Haswell SINGLE_THREADED
        Core in use  :  Haswell
   Copyright (c) 2011-2014, The OpenBLAS Project


NOTE: MaxCore=8000 MB was set to SCF,MP2,MDCI,CIPSI,MRCI and CIS
      => If you want to overwrite this, your respective input block should be placed after the MaxCore statement


***************************************
The coordinates will be read from file: isomer.xyz
***************************************


Your calculation utilizes the atom-pairwise dispersion correction
based on EEQ partial charges (D4)


================================================================================

cite the ECPs for C  [vDZP-ECP], O  [vDZP-ECP] as follows:
   B-Ne (ecp-2-mwb), Al-Ar (ecp-10-mwb), Ga-Kr (ecp-28-mwb), Y-Cd (ecp-28-mwb), In-Xe (ecp-46-mwb):
     A. Bergner, M. Dolg, W. Küchle, H. Stoll, and H. Preuß, Mol. Phys. 80, 1431 (1993)., T. Leininger, A. Berning, A. Nicklass, H. Stoll, H.-J. Werner, and H.-J.Flad, Chem. Phys. 217, 19 (1997).
   Na-Mg, K-Ca, Rb-Sr, Cs-Ba (CRENBL):
     L. Fernandez Pacios and P. A. Christiansen, J. Chem. Phys. 82, 2664 (1985)., M. M. Hurley, L. F. Pacios, P. A. Christiansen, R. B. Ross, and W. C. Ermler, J. Chem. Phys. 84, 6840 (1986)., L. A. LaJohn, P. A. Christiansen, R. B. Ross, T. Atashroo, and W. C. Ermler, J. Chem. Phys. 87, 2812 (1987)., R. B. Ross, J. M. Powers, T. Atashroo, W. C. Ermler, L. A. LaJohn, and P. A. Christiansen, J. Chem. Phys. 93, 6654 (1990). 
   Sc-Zn (ecp-10-mdf):
     M. Dolg, U. Wedig, H. Stoll, and H. Preuss, J. Chem. Phys. 86, 866 (1986). 
   Y-Cd (ecp-28-mwb), Hf-Hg (ecp-60-mwb):
     D. Andrae, U. Häußermann, M. Dolg, H. Stoll, and H. Preuß, Theor. Chim. Acta 77, 123 (1990). 
   La (ecp-46-mwb):
     M. Dolg, H. Stoll, and H. Preuss, J. Chem. Phys. 90, 1730 (1989)., M. Dolg, H. Stoll, and H. Preuss, Theor. Chim. Acta 85, 441 (1993).
   Ce-Lu (SBKJC-ecp):
     T. R. Cundari and W. J. Stevens, J. Chem. Phys. 98, 5555 (1993).
   Tl-Rn (ecp-78-mwb):
     W. Küchle, M. Dolg, H. Stoll, and H. Preuss, Mol. Phys. 74, 1245 (1991).

ECP parameters for C  [vDZP-ECP], O  [vDZP-ECP] have been obtained from:
MM, AH, SG, J. Chem. Phys. 158, 014103 (2023), 10.1063/5.0133026

----- Orbital basis set information -----
Your calculation utilizes the basis: vDZP
   Marcel Mueller, Andreas Hansen, Stefan Grimme 
   J. Chem. Phys. 158, 014103 (2023). DOI: 10.1063/5.0133026

----- AuxJ basis set information -----
Your calculation utilizes the auxiliary basis: def2/J
   F. Weigend, Phys. Chem. Chem. Phys. 8, 1057 (2006).

================================================================================
                                        WARNINGS
                       Please study these warnings very carefully!
================================================================================

WARNING: Frozen-Core approximation turned on, but there are no core electrons.
  ===> : Turning off frozen-core approximation

WARNING: Old DensityContainer found on disk!
         Will remove this file - 
         If you want to keep old densities, please start your calculation with a different basename. 


WARNING: your system is open-shell and RHF/RKS was chosen
  ===> : WILL SWITCH to UHF/UKS


================================================================================
                                       INPUT FILE
================================================================================
NAME = orca.inp
|  1>  ! DEFGRID2 
|  2>  ! wB97X-3c
|  3>  ! SP
|  4>  %pal
|  5> nprocs 4
|  6>  end
|  7>  %maxcore 8000
|  8>  *xyzfile            1             2  isomer.xyz
|  9> 
| 10>                          ****END OF INPUT****
================================================================================

                       ****************************
                       * Single Point Calculation *
                       ****************************

---------------------------------
CARTESIAN COORDINATES (ANGSTROEM)
---------------------------------
  C     -0.399261   -1.695701   -0.316892
  C      0.716445   -1.049043    0.384741
  C      0.033767    1.219050   -0.101464
  O      0.937787    0.355384   -0.044347
  O     -1.200893    1.040133    0.110717
  H     -0.496249   -1.603186   -1.391856
  H     -0.903600   -2.514642    0.178510
  H     -1.462820    0.107209    0.246402
  H      1.679149   -1.506213    0.150712
  H      0.601741   -1.014021    1.466576
  H      0.337550    2.231381   -0.357945

----------------------------
CARTESIAN COORDINATES (A.U.)
----------------------------
  NO LB      ZA    FRAG     MASS         X           Y           Z
   0 C     4.0000*   0    12.011   -0.754494   -3.204411   -0.598838
   1 C     4.0000*   0    12.011    1.353885   -1.982404    0.727055
   2 C     4.0000*   0    12.011    0.063811    2.303671   -0.191739
   3 O     6.0000*   0    15.999    1.772161    0.671579   -0.083803
   4 O     6.0000*   0    15.999   -2.269359    1.965566    0.209226
   5 H     1.0000    0     1.008   -0.937774   -3.029583   -2.630227
   6 H     1.0000    0     1.008   -1.707557   -4.751984    0.337335
   7 H     1.0000    0     1.008   -2.764329    0.202595    0.465633
   8 H     1.0000    0     1.008    3.173132   -2.846331    0.284805
   9 H     1.0000    0     1.008    1.137126   -1.916222    2.771426
  10 H     1.0000    0     1.008    0.637877    4.216700   -0.676419
* core charge reduced due to ECP

--------------------------------
INTERNAL COORDINATES (ANGSTROEM)
--------------------------------
 C      0   0   0     0.000000000000     0.00000000     0.00000000
 C      1   0   0     1.468078933158     0.00000000     0.00000000
 C      2   1   0     2.417992841489    95.88350560     0.00000000
 O      3   2   1     1.251571820476    30.63931784   225.55387563
 O      3   2   1     1.265472049089    96.26484872    42.00114824
 H      1   2   3     1.083288704776   120.30987380    65.46128100
 H      1   2   3     1.081870839087   117.96041302   224.89279432
 H      5   3   2     0.978449149942   114.78629447   351.44573444
 H      2   1   3     1.091133701899   112.54841420   225.98987567
 H      2   1   3     1.088462462697   114.14832590   101.55749511
 H      3   2   1     1.087603525157   147.31446356   218.00339008

---------------------------
INTERNAL COORDINATES (A.U.)
---------------------------
 C      0   0   0     0.000000000000     0.00000000     0.00000000
 C      1   0   0     2.774267126647     0.00000000     0.00000000
 C      2   1   0     4.569344264196    95.88350560     0.00000000
 O      3   2   1     2.365127977633    30.63931784   225.55387563
 O      3   2   1     2.391395602910    96.26484872    42.00114824
 H      1   2   3     2.047118975996   120.30987380    65.46128100
 H      1   2   3     2.044439598150   117.96041302   224.89279432
 H      5   3   2     1.849000929358   114.78629447   351.44573444
 H      2   1   3     2.061943872080   112.54841420   225.98987567
 H      2   1   3     2.056895961550   114.14832590   101.55749511
 H      3   2   1     2.055272804834   147.31446356   218.00339008

---------------------
BASIS SET INFORMATION
---------------------
There are 3 groups of distinct atoms

 Group   1 Type C   : 6s6p2d contracted to 2s2p1d pattern {42/42/2}
 Group   2 Type O   : 6s6p2d contracted to 2s2p1d pattern {42/42/2}
 Group   3 Type H   : 8s2p contracted to 2s1p pattern {53/2}

Atom   0C    basis set group =>   1
Atom   1C    basis set group =>   1
Atom   2C    basis set group =>   1
Atom   3O    basis set group =>   2
Atom   4O    basis set group =>   2
Atom   5H    basis set group =>   3
Atom   6H    basis set group =>   3
Atom   7H    basis set group =>   3
Atom   8H    basis set group =>   3
Atom   9H    basis set group =>   3
Atom  10H    basis set group =>   3
---------------------------------
AUXILIARY/J BASIS SET INFORMATION
---------------------------------
There are 3 groups of distinct atoms

 Group   1 Type C   : 12s5p4d2f1g contracted to 6s4p3d1f1g pattern {711111/2111/211/2/1}
 Group   2 Type O   : 12s5p4d2f1g contracted to 6s4p3d1f1g pattern {711111/2111/211/2/1}
 Group   3 Type H   : 5s2p1d contracted to 3s1p1d pattern {311/2/1}

Atom   0C    basis set group =>   1
Atom   1C    basis set group =>   1
Atom   2C    basis set group =>   1
Atom   3O    basis set group =>   2
Atom   4O    basis set group =>   2
Atom   5H    basis set group =>   3
Atom   6H    basis set group =>   3
Atom   7H    basis set group =>   3
Atom   8H    basis set group =>   3
Atom   9H    basis set group =>   3
Atom  10H    basis set group =>   3
-------------------------
ECP PARAMETER INFORMATION
-------------------------

 Group 1, Type C  ECP vDZP-ECP (replacing 2 core electrons, lmax=3)
 Group 2, Type O  ECP vDZP-ECP (replacing 2 core electrons, lmax=3)

Atom   0C    ECP group =>   1
Atom   1C    ECP group =>   1
Atom   2C    ECP group =>   1
Atom   3O    ECP group =>   2
Atom   4O    ECP group =>   2



           ************************************************************
           *        Program running with 4 parallel MPI-processes     *
           *              working on a common directory               *
           ************************************************************
------------------------------------------------------------------------------
                             ORCA STARTUP CALCULATIONS
                           -- RI-GTO INTEGRALS CHOSEN --
------------------------------------------------------------------------------
------------------------------------------------------------------------------
                   ___                                                        
                  /   \      - P O W E R E D   B Y -                         
                 /     \                                                     
                 |  |  |   _    _      __       _____    __    __             
                 |  |  |  | |  | |    /  \     |  _  \  |  |  /  |          
                  \  \/   | |  | |   /    \    | | | |  |  | /  /          
                 / \  \   | |__| |  /  /\  \   | |_| |  |  |/  /          
                |  |  |   |  __  | /  /__\  \  |    /   |      \           
                |  |  |   | |  | | |   __   |  |    \   |  |\   \          
                \     /   | |  | | |  |  |  |  | |\  \  |  | \   \       
                 \___/    |_|  |_| |__|  |__|  |_| \__\ |__|  \__/        
                                                                              
                      - O R C A' S   B I G   F R I E N D -                    
                                      &                                       
                       - I N T E G R A L  F E E D E R -                       
                                                                              
 v1 FN, 2020, v2 2021, v3 2022-2024                                           
------------------------------------------------------------------------------


----------------------
SHARK INTEGRAL PACKAGE
----------------------

Number of atoms                             ...     11
Number of basis functions                   ...     95
Number of shells                            ...     43
Maximum angular momentum                    ...      2
Integral batch strategy                     ... SHARK/LIBINT Hybrid
RI-J (if used) integral strategy            ... SPLIT-RIJ (Revised 2003 algorithm where possible)
Printlevel                                  ...      1
Contraction scheme used                     ... SEGMENTED contraction
Prescreening option                         ... SCHWARTZ
   Thresh                                   ... 1.000e-10
   Tcut                                     ... 1.000e-11
   Tpresel                                  ... 1.000e-11 
Coulomb Range Separation                    ... NOT USED
Exchange Range Separation                   ... Long Range
   Mu parameter                             ... 3.000e-01
   Scaling (regular/separated)              ... 1.670e-01 8.330e-01
Multipole approximations                    ... NOT USED
Finite Nucleus Model                        ... NOT USED
CABS basis                                  ... NOT available
Auxiliary Coulomb fitting basis             ... AVAILABLE
   # of basis functions in Aux-J            ...    311
   # of shells in Aux-J                     ...    105
   Maximum angular momentum in Aux-J        ...      4
Auxiliary J/K fitting basis                 ... NOT available
Auxiliary Correlation fitting basis         ... NOT available
Auxiliary 'external' fitting basis          ... NOT available

Checking pre-screening integrals            ... done (  0.0 sec) Dimension = 43
Check shell pair data                       ... done (  0.0 sec)
Shell pair information
Shell pair cut-off parameter TPreSel        ...   1.0e-11
Total number of shell pairs                 ...       946
Shell pairs after pre-screening             ...       946
Total number of primitive shell pairs       ...      8674
Primitive shell pairs kept                  ...      7876
          la=0 lb=0:    253 shell pairs
          la=1 lb=0:    352 shell pairs
          la=1 lb=1:    136 shell pairs
          la=2 lb=0:    110 shell pairs
          la=2 lb=1:     80 shell pairs
          la=2 lb=2:     15 shell pairs

Calculating one electron integrals          ... done (  0.0 sec)
Calculating ECP integrals                   ... done (  0.0 sec)
Calculating RI/J V-Matrix + Cholesky decomp.... done (  0.0 sec)
Calculating Nuclear repulsion               ... done (  0.0 sec) ENN=    103.225301749051 Eh

Diagonalization of the overlap matrix:
Smallest eigenvalue                        ... 2.208e-03
Time for diagonalization                   ...    0.002 sec
Threshold for overlap eigenvalues          ... 1.000e-07
Number of eigenvalues below threshold      ... 0
Time for construction of square roots      ...    0.000 sec
Total time needed                          ...    0.003 sec

-------------------
DFT GRID GENERATION
-------------------

General Integration Accuracy     IntAcc      ... 4.388
Radial Grid Type                 RadialGrid  ... OptM3 with GC (2021)
Angular Grid (max. ang.)         AngularGrid ... 4 (Lebedev-302)
Angular grid pruning method      GridPruning ... 4 (adaptive)
Weight generation scheme         WeightScheme... mBecke (2022)
Basis function cutoff            BFCut       ... 1.0000e-10
Integration weight cutoff        WCut        ... 1.0000e-14
Partially contracted basis set               ... off
Rotationally invariant grid construction     ... off
Angular grids for H and He will be reduced by one unit

Total number of grid points                  ...    49775
Total number of batches                      ...      784
Average number of points per batch           ...       63
Average number of grid points per atom       ...     4525

--------------------
COSX GRID GENERATION
--------------------

GRIDX 1
-------
General Integration Accuracy     IntAcc      ... 3.816
Radial Grid Type                 RadialGrid  ... OptM3 with GC (2021)
Angular Grid (max. ang.)         AngularGrid ... 1 (Lebedev-50)
Angular grid pruning method      GridPruning ... 4 (adaptive)
Weight generation scheme         WeightScheme... mBecke (2022)
Basis function cutoff            BFCut       ... 1.0000e-10
Integration weight cutoff        WCut        ... 1.0000e-14
Partially contracted basis set               ... on
Rotationally invariant grid construction     ... off
Angular grids for H and He will be reduced by one unit

Total number of grid points                  ...     6391
Total number of batches                      ...       57
Average number of points per batch           ...      112
Average number of grid points per atom       ...      581
UseSFitting                                  ... on

GRIDX 2
-------
General Integration Accuracy     IntAcc      ... 4.020
Radial Grid Type                 RadialGrid  ... OptM3 with GC (2021)
Angular Grid (max. ang.)         AngularGrid ... 2 (Lebedev-110)
Angular grid pruning method      GridPruning ... 4 (adaptive)
Weight generation scheme         WeightScheme... mBecke (2022)
Basis function cutoff            BFCut       ... 1.0000e-10
Integration weight cutoff        WCut        ... 1.0000e-14
Partially contracted basis set               ... on
Rotationally invariant grid construction     ... off
Angular grids for H and He will be reduced by one unit

Total number of grid points                  ...    13790
Total number of batches                      ...      114
Average number of points per batch           ...      120
Average number of grid points per atom       ...     1254
UseSFitting                                  ... on

GRIDX 3
-------
General Integration Accuracy     IntAcc      ... 4.338
Radial Grid Type                 RadialGrid  ... OptM3 with GC (2021)
Angular Grid (max. ang.)         AngularGrid ... 3 (Lebedev-194)
Angular grid pruning method      GridPruning ... 4 (adaptive)
Weight generation scheme         WeightScheme... mBecke (2022)
Basis function cutoff            BFCut       ... 1.0000e-10
Integration weight cutoff        WCut        ... 1.0000e-14
Partially contracted basis set               ... on
Rotationally invariant grid construction     ... off
Angular grids for H and He will be reduced by one unit

Total number of grid points                  ...    30338
Total number of batches                      ...      243
Average number of points per batch           ...      124
Average number of grid points per atom       ...     2758
UseSFitting                                  ... on
Initializing property integral containers    ... done (  0.0 sec)

SHARK setup successfully completed in   0.8 seconds

Maximum memory used throughout the entire STARTUP-calculation: 16.1 MB


           ************************************************************
           *        Program running with 4 parallel MPI-processes     *
           *              working on a common directory               *
           ************************************************************
-------------------------------------------------------------------------------
                                 ORCA GUESS
                   Start orbitals & Density for SCF / CASSCF
-------------------------------------------------------------------------------

------------
SCF SETTINGS
------------
Hamiltonian:
 Density Functional     Method          .... DFT(GTOs)
 Exchange Functional    Exchange        .... WB97X-V
 Correlation Functional Correlation     .... WB97X-V
 Gradients option       PostSCFGGA      .... off
 Hybrid DFT is turned on
   Fraction HF Exchange ScalHFX         ....  0.167000
   Scaling of DF-GGA-X  ScalDFX         ....  0.000000
   Scaling of DF-GGA-C  ScalDFC         ....  1.000000
   Scaling of DF-LDA-C  ScalLDAC        ....  1.000000
   Perturbative correction              ....  0.000000
 Long-range corrected/Screened/Range-Separated Hybrid DFT is turned on
   Amount of maximum screened exact exchange              ....  0.833000
   Range separation parameter mu (erf(mu*r12)/r12)        ....  0.300000
   NL short-range parameter             ....  6.000000
   NL long-range parameter              ....  0.010000
 RI-approximation to the Coulomb term is turned on
   Number of AuxJ basis functions       .... 311
   RIJ-COSX (HFX calculated with COS-X)).... on


General Settings:
 Integral files         IntName         .... orca
 Hartree-Fock type      HFTyp           .... UHF
 Total Charge           Charge          ....    1
 Multiplicity           Mult            ....    2
 Number of Electrons    NEL             ....   29
 Basis Dimension        Dim             ....   95
 Nuclear Repulsion      ENuc            ....    103.2253017491 Eh

Convergence Acceleration:
 AO-DIIS                CNVDIIS         .... on
   Start iteration      DIISMaxIt       ....    12
   Startup error        DIISStart       ....  0.200000
   # of expansion vecs  DIISMaxEq       ....     5
   Bias factor          DIISBfac        ....   1.050
   Max. coefficient     DIISMaxC        ....  10.000
 MO-DIIS                CNVKDIIS        .... off
 Trust-Rad. Augm. Hess. CNVTRAH         .... auto
   Auto Start mean grad. ratio tolernc. ....  1.125000
   Auto Start start iteration           ....    50
   Auto Start num. interpolation iter.  ....    10
   Max. Number of Micro iterations      ....    24
   Max. Number of Macro iterations      .... Maxiter - #DIIS iter
   Number of Davidson start vectors     ....     2
   Converg. threshold    (grad. norm)   ....   5.000e-05
   Grad. Scal. Fac. for Micro threshold ....   0.100
   Minimum threshold for Micro iter.    ....   1.000e-02
   NR start threshold (gradient norm)   ....   1.000e-04
   Initial trust radius                 ....   0.400
   Minimum AH scaling param. (alpha)    ....   1.000
   Maximum AH scaling param. (alpha)    .... 1000.000
   Quad. conv. algorithm                .... NR
   White noise on init. David. guess    .... on
   Maximum white noise                  ....   0.010
   Pseudo random numbers                .... off
   Inactive MOs                         .... canonical
   Orbital update algorithm             .... Taylor
   Preconditioner                       .... Diag
   Full preconditioner red. dimension   ....   250
 SOSCF                  CNVSOSCF        .... on
   Start iteration      SOSCFMaxIt      ....   150
   Startup grad/error   SOSCFStart      ....  0.003300
   Hessian update       SOSCFHessUp     .... L-BFGS
 Level Shifting         CNVShift        .... on
   Level shift para.    LevelShift      ....    0.2500
   Turn off err/grad.   ShiftErr        ....    0.0010
 Zerner damping         CNVZerner       .... off
 Static damping         CNVDamp         .... on
   Fraction old density DampFac         ....    0.7000
   Max. Damping (<1)    DampMax         ....    0.9800
   Min. Damping (>=0)   DampMin         ....    0.0000
   Turn off err/grad.   DampErr         ....    0.1000

SCF Procedure:
 Maximum # iterations   MaxIter         ....   125
 SCF integral mode      SCFMode         .... Direct
   Integral package                     .... SHARK and LIBINT hybrid scheme
 Reset frequency        DirectResetFreq ....    20
 Integral Threshold     Thresh          ....  1.000e-10 Eh
 Primitive CutOff       TCut            ....  1.000e-11 Eh

Convergence Tolerance:
 Convergence Check Mode ConvCheckMode   .... Total+1el-Energy
 Convergence forced     ConvForced      .... 0
 Energy Change          TolE            ....  1.000e-06 Eh
 1-El. energy change                    ....  1.000e-03 Eh
 Orbital Gradient       TolG            ....  5.000e-05
 Orbital Rotation angle TolX            ....  5.000e-05
 DIIS Error             TolErr          ....  1.000e-06

------------------------------
INITIAL GUESS: MODEL POTENTIAL
------------------------------
Loading Hartree-Fock densities                     ... done
Atomic calculation to generate a density for atom 0 (C  with ECP)
  Multiplicity assumed   :    1
  Atomic configuration   : 1s2 2s2 2p2 
  Number of open shells  : 1
  Command: /home/alejandro/orca_6_0_1/orca orca_atom6.inp "" > orca_atom6.out
Returned from the atomic calculation with res=0
Atomic calculation to generate a density for atom 3 (O  with ECP)
  Multiplicity assumed   :    3
  Atomic configuration   : 1s2 2s2 2p4 
  Number of open shells  : 1
  Command: /home/alejandro/orca_6_0_1/orca orca_atom8.inp "" > orca_atom8.out
Returned from the atomic calculation with res=0
Calculating cut-offs                               ... done
Initializing the effective Hamiltonian             ... done
Setting up the integral package (SHARK)            ... done
Starting the Coulomb interaction                   ... done (   0.0 sec)
Making the grid                                    ... done (   0.1 sec)
Mapping shells                                     ... done
Starting the XC term evaluation                    ... done (   0.0 sec)
  promolecular density results
     # of electrons  =     39.996235898
     EX              =    -22.685369457
     EC              =     -1.658504009
     EX+EC           =    -24.343873466
Transforming the Hamiltonian                       ... done (   0.0 sec)
Diagonalizing the Hamiltonian                      ... done (   0.0 sec)
Back transforming the eigenvectors                 ... done (   0.0 sec)
Now organizing SCF variables                       ... done
                      ------------------
                      INITIAL GUESS DONE (   1.0 sec)
                      ------------------
             **** ENERGY FILE WAS UPDATED (orca.en.tmp) ****
Finished Guess after   1.4 sec
Maximum memory used throughout the entire GUESS-calculation: 9.5 MB


           ************************************************************
           *        Program running with 4 parallel MPI-processes     *
           *              working on a common directory               *
           ************************************************************

-------------------------------------------------------------------------------------------
                                      ORCA LEAN-SCF
                              memory conserving SCF solver
-------------------------------------------------------------------------------------------

----------------------------------------D-I-I-S--------------------------------------------
Iteration    Energy (Eh)           Delta-E    RMSDP     MaxDP     DIISErr   Damp  Time(sec)
-------------------------------------------------------------------------------------------
               ***  Starting incremental Fock matrix formation  ***
    1    -52.3672512998966084     0.00e+00  1.66e-03  2.53e-02  6.68e-02  0.700   2.0
    2    -52.3997265541763824    -3.25e-02  1.22e-03  1.68e-02  3.99e-02  0.700   1.1
                               ***Turning on AO-DIIS***
    3    -52.4171823092382425    -1.75e-02  7.27e-04  8.78e-03  2.20e-02  0.700   1.1
    4    -52.4281051357649659    -1.09e-02  1.73e-03  1.83e-02  1.62e-02  0.000   1.0
                              *** Initializing SOSCF ***
---------------------------------------S-O-S-C-F--------------------------------------
Iteration    Energy (Eh)           Delta-E    RMSDP     MaxDP     MaxGrad    Time(sec)
--------------------------------------------------------------------------------------
    5    -52.4528660954917854    -2.48e-02  2.11e-04  3.92e-03  2.59e-03     1.1
               *** Restarting incremental Fock matrix formation ***
    6    -52.4531141405760053    -2.48e-04  1.41e-04  2.77e-03  2.42e-03     2.0
    7    -52.4531995280594714    -8.54e-05  1.36e-04  2.77e-03  1.05e-03     1.8
    8    -52.4532258486324423    -2.63e-05  3.75e-05  6.67e-04  3.52e-04     1.8
    9    -52.4532297301584123    -3.88e-06  1.07e-05  2.06e-04  6.75e-05     1.6
   10    -52.4532298442297673    -1.14e-07  4.46e-06  1.30e-04  7.03e-05     1.5
                 **** Energy Check signals convergence ****

               *****************************************************
               *                     SUCCESS                       *
               *           SCF CONVERGED AFTER  10 CYCLES          *
               *****************************************************

Recomputing exchange energy using gridx3       ... done (    3.564 sec)
Old exchange energy                            :     -5.899790575 Eh
New exchange energy                            :     -5.899797719 Eh
Exchange energy change after final integration :     -0.000007144 Eh
Total energy after final integration           :    -52.453236988 Eh
             **** ENERGY FILE WAS UPDATED (orca.en.tmp) ****

----------------
TOTAL SCF ENERGY
----------------

Total Energy       :        -52.45323698842285 Eh           -1427.32514 eV

Components:
Nuclear Repulsion  :        103.22530174905053 Eh            2808.90326 eV
Electronic Energy  :       -155.67853159328030 Eh           -4236.22821 eV
One Electron Energy:       -279.21827480656657 Eh           -7597.91553 eV
Two Electron Energy:        123.53974321328627 Eh            3361.68732 eV

Virial components:
Potential Energy   :        -93.62107408032867 Eh           -2547.55894 eV
Kinetic Energy     :         41.16783709190582 Eh            1120.23380 eV
Virial Ratio       :          2.27413147480454

DFT components:
N(Alpha)           :       14.999976839368 electrons
N(Beta)            :       13.999984629099 electrons
N(Total)           :       28.999961468467 electrons
E(X)               :       -7.192379602522 Eh       
E(C)               :       -1.117142141151 Eh       
E(XC)              :       -8.309521743672 Eh       

---------------
SCF CONVERGENCE
---------------

  Last Energy change         ...    1.1407e-07  Tolerance :   1.0000e-06
  Last MAX-Density change    ...    1.2981e-04  Tolerance :   1.0000e-05
  Last RMS-Density change    ...    4.4615e-06  Tolerance :   1.0000e-06
  Last DIIS Error            ...    2.5898e-03  Tolerance :   1.0000e-06
  Last Orbital Gradient      ...    7.0326e-05  Tolerance :   5.0000e-05
  Last Orbital Rotation      ...    1.3314e-04  Tolerance :   5.0000e-05


----------------------
UHF SPIN CONTAMINATION
----------------------

Warning: in a DFT calculation there is little theoretical justification to 
         calculate <S**2> as in Hartree-Fock theory. We will do it anyways
         but you should keep in mind that the values have only limited relevance

Expectation value of <S**2>     :     0.753356
Ideal value S*(S+1) for S=0.5   :     0.750000
Deviation                       :     0.003356

----------------
ORBITAL ENERGIES
----------------
                 SPIN UP ORBITALS
  NO   OCC          E(Eh)            E(eV) 
   0   1.0000      -1.539690       -41.8971 
   1   1.0000      -1.452930       -39.5362 
   2   1.0000      -1.164227       -31.6802 
   3   1.0000      -1.057780       -28.7837 
   4   1.0000      -1.017683       -27.6926 
   5   1.0000      -0.915794       -24.9200 
   6   1.0000      -0.899299       -24.4712 
   7   1.0000      -0.856841       -23.3158 
   8   1.0000      -0.792995       -21.5785 
   9   1.0000      -0.784176       -21.3385 
  10   1.0000      -0.772933       -21.0326 
  11   1.0000      -0.739186       -20.1143 
  12   1.0000      -0.701611       -19.0918 
  13   1.0000      -0.690577       -18.7915 
  14   1.0000      -0.544317       -14.8116 
  15   0.0000      -0.180339        -4.9073 
  16   0.0000      -0.089860        -2.4452 
  17   0.0000      -0.064488        -1.7548 
  18   0.0000      -0.054588        -1.4854 
  19   0.0000      -0.038658        -1.0519 
  20   0.0000      -0.031945        -0.8693 
  21   0.0000      -0.018797        -0.5115 
  22   0.0000       0.005166         0.1406 
  23   0.0000       0.091443         2.4883 
  24   0.0000       0.097090         2.6419 
  25   0.0000       0.142405         3.8750 

                 SPIN DOWN ORBITALS
  NO   OCC          E(Eh)            E(eV) 
   0   1.0000      -1.538280       -41.8587 
   1   1.0000      -1.451217       -39.4896 
   2   1.0000      -1.154522       -31.4161 
   3   1.0000      -1.048967       -28.5438 
   4   1.0000      -0.998182       -27.1619 
   5   1.0000      -0.913850       -24.8671 
   6   1.0000      -0.893317       -24.3084 
   7   1.0000      -0.851125       -23.1603 
   8   1.0000      -0.782055       -21.2808 
   9   1.0000      -0.778091       -21.1729 
  10   1.0000      -0.767882       -20.8951 
  11   1.0000      -0.731613       -19.9082 
  12   1.0000      -0.694992       -18.9117 
  13   1.0000      -0.685246       -18.6465 
  14   0.0000      -0.213228        -5.8022 
  15   0.0000      -0.179261        -4.8779 
  16   0.0000      -0.084129        -2.2893 
  17   0.0000      -0.061972        -1.6863 
  18   0.0000      -0.052959        -1.4411 
  19   0.0000      -0.034618        -0.9420 
  20   0.0000      -0.027493        -0.7481 
  21   0.0000      -0.010907        -0.2968 
  22   0.0000       0.010301         0.2803 
  23   0.0000       0.093798         2.5524 
  24   0.0000       0.098369         2.6767 
*Only the first 10 virtual orbitals were printed.

                    ********************************
                    * MULLIKEN POPULATION ANALYSIS *
                    ********************************

--------------------------------------------
MULLIKEN ATOMIC CHARGES AND SPIN POPULATIONS
--------------------------------------------
   0 C :   -0.101457    0.969424
   1 C :    0.115030   -0.041144
   2 C :    0.365689   -0.000644
   3 O :   -0.118075    0.012401
   4 O :    0.000947    0.021394
   5 H :    0.102007   -0.012166
   6 H :    0.102359   -0.016845
   7 H :    0.208897    0.004102
   8 H :    0.119139    0.053052
   9 H :    0.101618    0.007427
  10 H :    0.103845    0.002999
Sum of atomic charges         :    1.0000000
Sum of atomic spin populations:    1.0000000

-----------------------------------------------------
MULLIKEN REDUCED ORBITAL CHARGES AND SPIN POPULATIONS
-----------------------------------------------------
CHARGE
  0 C s       :     1.104469  s :     1.104469
      pz      :     1.039415  p :     2.944863
      px      :     0.910415
      py      :     0.995033
      dz2     :     0.017574  d :     0.052125
      dxz     :     0.009380
      dyz     :     0.009384
      dx2y2   :     0.008211
      dxy     :     0.007577

  1 C s       :     1.037016  s :     1.037016
      pz      :     1.021273  p :     2.718852
      px      :     1.066182
      py      :     0.631398
      dz2     :     0.031487  d :     0.129102
      dxz     :     0.012190
      dyz     :     0.021153
      dx2y2   :     0.035949
      dxy     :     0.028323

  2 C s       :     1.144192  s :     1.144192
      pz      :     0.605858  p :     2.249274
      px      :     0.737864
      py      :     0.905551
      dz2     :     0.010212  d :     0.240845
      dxz     :     0.064932
      dyz     :     0.020415
      dx2y2   :     0.080412
      dxy     :     0.064875

  3 O s       :     1.663171  s :     1.663171
      pz      :     1.605411  p :     4.409209
      px      :     1.538911
      py      :     1.264887
      dz2     :     0.005101  d :     0.045695
      dxz     :     0.007955
      dyz     :     0.007147
      dx2y2   :     0.010850
      dxy     :     0.014643

  4 O s       :     1.569457  s :     1.569457
      pz      :     1.633511  p :     4.392094
      px      :     1.306023
      py      :     1.452561
      dz2     :     0.004261  d :     0.037501
      dxz     :     0.009386
      dyz     :     0.000999
      dx2y2   :     0.016935
      dxy     :     0.005921

  5 H s       :     0.848465  s :     0.848465
      pz      :     0.028035  p :     0.049528
      px      :     0.010918
      py      :     0.010575

  6 H s       :     0.847806  s :     0.847806
      pz      :     0.012791  p :     0.049834
      px      :     0.015518
      py      :     0.021526

  7 H s       :     0.677623  s :     0.677623
      pz      :     0.028590  p :     0.113480
      px      :     0.027249
      py      :     0.057640

  8 H s       :     0.837268  s :     0.837268
      pz      :     0.010177  p :     0.043593
      px      :     0.024645
      py      :     0.008770

  9 H s       :     0.855820  s :     0.855820
      pz      :     0.027240  p :     0.042562
      px      :     0.009941
      py      :     0.005381

 10 H s       :     0.853564  s :     0.853564
      pz      :     0.008388  p :     0.042591
      px      :     0.006062
      py      :     0.028141


SPIN
  0 C s       :     0.066342  s :     0.066342
      pz      :     0.070043  p :     0.906127
      px      :     0.412643
      py      :     0.423441
      dz2     :    -0.000455  d :    -0.003046
      dxz     :     0.000390
      dyz     :    -0.000581
      dx2y2   :    -0.000877
      dxy     :    -0.001523

  1 C s       :    -0.016009  s :    -0.016009
      pz      :    -0.012410  p :    -0.049289
      px      :    -0.021873
      py      :    -0.015007
      dz2     :     0.002854  d :     0.024155
      dxz     :     0.000148
      dyz     :     0.001440
      dx2y2   :     0.016043
      dxy     :     0.003669

  2 C s       :    -0.000639  s :    -0.000639
      pz      :     0.000794  p :    -0.000355
      px      :     0.000292
      py      :    -0.001442
      dz2     :     0.000001  d :     0.000351
      dxz     :    -0.000067
      dyz     :     0.000235
      dx2y2   :     0.000115
      dxy     :     0.000067

  3 O s       :     0.001002  s :     0.001002
      pz      :     0.001184  p :     0.011466
      px      :     0.000879
      py      :     0.009403
      dz2     :     0.000110  d :    -0.000066
      dxz     :     0.000001
      dyz     :    -0.000043
      dx2y2   :    -0.000009
      dxy     :    -0.000125

  4 O s       :     0.001045  s :     0.001045
      pz      :     0.000697  p :     0.020344
      px      :     0.000427
      py      :     0.019221
      dz2     :     0.000002  d :     0.000005
      dxz     :     0.000000
      dyz     :     0.000023
      dx2y2   :    -0.000020
      dxy     :    -0.000000

  5 H s       :    -0.023804  s :    -0.023804
      pz      :     0.000786  p :     0.011638
      px      :     0.005892
      py      :     0.004961

  6 H s       :    -0.029010  s :    -0.029010
      pz      :     0.000694  p :     0.012165
      px      :     0.006865
      py      :     0.004606

  7 H s       :    -0.007094  s :    -0.007094
      pz      :     0.000193  p :     0.011196
      px      :     0.000196
      py      :     0.010806

  8 H s       :     0.052864  s :     0.052864
      pz      :     0.000099  p :     0.000189
      px      :    -0.000877
      py      :     0.000967

  9 H s       :     0.008023  s :     0.008023
      pz      :    -0.000146  p :    -0.000595
      px      :    -0.000476
      py      :     0.000026

 10 H s       :     0.003041  s :     0.003041
      pz      :     0.000004  p :    -0.000042
      px      :    -0.000025
      py      :    -0.000021



                     *******************************
                     * LOEWDIN POPULATION ANALYSIS *
                     *******************************

-------------------------------------------
LOEWDIN ATOMIC CHARGES AND SPIN POPULATIONS
-------------------------------------------
   0 C :    0.040257    0.754793
   1 C :    0.016326    0.050426
   2 C :    0.154210    0.002012
   3 O :    0.108996    0.015304
   4 O :    0.174057    0.024391
   5 H :    0.049159    0.036983
   6 H :    0.056591    0.034909
   7 H :    0.092590    0.033427
   8 H :    0.099691    0.039965
   9 H :    0.083893    0.005631
  10 H :    0.124230    0.002158

----------------------------------------------------
LOEWDIN REDUCED ORBITAL CHARGES AND SPIN POPULATIONS
----------------------------------------------------
CHARGE
  0 C s       :     0.868607  s :     0.868607
      pz      :     1.067306  p :     2.913017
      px      :     0.899625
      py      :     0.946086
      dz2     :     0.060320  d :     0.178119
      dxz     :     0.032322
      dyz     :     0.029396
      dx2y2   :     0.028506
      dxy     :     0.027575

  1 C s       :     0.778098  s :     0.778098
      pz      :     1.048570  p :     2.823899
      px      :     1.075479
      py      :     0.699851
      dz2     :     0.099938  d :     0.381677
      dxz     :     0.036413
      dyz     :     0.057587
      dx2y2   :     0.099519
      dxy     :     0.088220

  2 C s       :     0.765616  s :     0.765616
      pz      :     0.621542  p :     2.445826
      px      :     0.850533
      py      :     0.973751
      dz2     :     0.044967  d :     0.634348
      dxz     :     0.147067
      dyz     :     0.044132
      dx2y2   :     0.221077
      dxy     :     0.177105

  3 O s       :     1.361546  s :     1.361546
      pz      :     1.509257  p :     4.416211
      px      :     1.573835
      py      :     1.333119
      dz2     :     0.013111  d :     0.113247
      dxz     :     0.010062
      dyz     :     0.019291
      dx2y2   :     0.032264
      dxy     :     0.038519

  4 O s       :     1.320248  s :     1.320248
      pz      :     1.527775  p :     4.418550
      px      :     1.408785
      py      :     1.481991
      dz2     :     0.010369  d :     0.087145
      dxz     :     0.015138
      dyz     :     0.001971
      dx2y2   :     0.039128
      dxy     :     0.020539

  5 H s       :     0.789221  s :     0.789221
      pz      :     0.078000  p :     0.161620
      px      :     0.040705
      py      :     0.042914

  6 H s       :     0.781526  s :     0.781526
      pz      :     0.044844  p :     0.161883
      px      :     0.050315
      py      :     0.066724

  7 H s       :     0.589862  s :     0.589862
      pz      :     0.077655  p :     0.317548
      px      :     0.063018
      py      :     0.176875

  8 H s       :     0.758033  s :     0.758033
      pz      :     0.039594  p :     0.142276
      px      :     0.071560
      py      :     0.031122

  9 H s       :     0.774109  s :     0.774109
      pz      :     0.076186  p :     0.141999
      px      :     0.041146
      py      :     0.024666

 10 H s       :     0.754394  s :     0.754394
      pz      :     0.023195  p :     0.121376
      px      :     0.023677
      py      :     0.074504


SPIN
  0 C s       :     0.023591  s :     0.023591
      pz      :     0.053358  p :     0.735061
      px      :     0.345115
      py      :     0.336587
      dz2     :    -0.000503  d :    -0.003859
      dxz     :     0.000147
      dyz     :    -0.001223
      dx2y2   :    -0.000423
      dxy     :    -0.001856

  1 C s       :    -0.003459  s :    -0.003459
      pz      :    -0.003695  p :    -0.010040
      px      :    -0.002503
      py      :    -0.003841
      dz2     :     0.007847  d :     0.063924
      dxz     :     0.001101
      dyz     :     0.003834
      dx2y2   :     0.041791
      dxy     :     0.009352

  2 C s       :    -0.000350  s :    -0.000350
      pz      :     0.000734  p :     0.001237
      px      :     0.000370
      py      :     0.000133
      dz2     :     0.000005  d :     0.001125
      dxz     :    -0.000126
      dyz     :     0.000592
      dx2y2   :     0.000437
      dxy     :     0.000218

  3 O s       :     0.002513  s :     0.002513
      pz      :     0.000638  p :     0.012972
      px      :     0.000854
      py      :     0.011481
      dz2     :     0.000348  d :    -0.000181
      dxz     :    -0.000034
      dyz     :    -0.000164
      dx2y2   :     0.000040
      dxy     :    -0.000371

  4 O s       :     0.001148  s :     0.001148
      pz      :     0.000686  p :     0.023252
      px      :     0.000501
      py      :     0.022065
      dz2     :     0.000034  d :    -0.000009
      dxz     :     0.000010
      dyz     :     0.000019
      dx2y2   :    -0.000006
      dxy     :    -0.000065

  5 H s       :    -0.012739  s :    -0.012739
      pz      :     0.005711  p :     0.049722
      px      :     0.021758
      py      :     0.022252

  6 H s       :    -0.016692  s :    -0.016692
      pz      :     0.003863  p :     0.051602
      px      :     0.025578
      py      :     0.022161

  7 H s       :     0.005936  s :     0.005936
      pz      :     0.000728  p :     0.027491
      px      :     0.000439
      py      :     0.026325

  8 H s       :     0.037195  s :     0.037195
      pz      :    -0.000229  p :     0.002770
      px      :     0.002213
      py      :     0.000786

  9 H s       :     0.007300  s :     0.007300
      pz      :    -0.000164  p :    -0.001669
      px      :    -0.001080
      py      :    -0.000425

 10 H s       :     0.002086  s :     0.002086
      pz      :     0.000135  p :     0.000072
      px      :    -0.000037
      py      :    -0.000026



                      *****************************
                      * MAYER POPULATION ANALYSIS *
                      *****************************

  NA   - Mulliken gross atomic population
  ZA   - Total nuclear charge
  QA   - Mulliken gross atomic charge
  VA   - Mayer's total valence
  BVA  - Mayer's bonded valence
  FA   - Mayer's free valence

  ATOM       NA         ZA         QA         VA         BVA        FA
  0 C      4.1015     4.0000    -0.1015     3.9255     3.1599     0.7656
  1 C      3.8850     4.0000     0.1150     3.8542     3.8498     0.0043
  2 C      3.6343     4.0000     0.3657     3.9816     3.9816     0.0000
  3 O      6.1181     6.0000    -0.1181     2.2954     2.2952     0.0002
  4 O      5.9991     6.0000     0.0009     2.4569     2.4563     0.0006
  5 H      0.8980     1.0000     0.1020     1.0332     1.0321     0.0011
  6 H      0.8976     1.0000     0.1024     1.0470     1.0458     0.0012
  7 H      0.7911     1.0000     0.2089     1.0786     1.0784     0.0001
  8 H      0.8809     1.0000     0.1191     1.0266     1.0234     0.0032
  9 H      0.8984     1.0000     0.1016     1.0175     1.0175     0.0001
 10 H      0.8962     1.0000     0.1038     1.0233     1.0233     0.0000

  Mayer bond orders larger than 0.100000
B(  0-C ,  1-C ) :   1.0793 B(  0-C ,  5-H ) :   0.9986 B(  0-C ,  6-H ) :   1.0007 
B(  1-C ,  3-O ) :   0.7604 B(  1-C ,  8-H ) :   0.9715 B(  1-C ,  9-H ) :   0.9795 
B(  2-C ,  3-O ) :   1.4646 B(  2-C ,  4-O ) :   1.4116 B(  2-C , 10-H ) :   1.0254 
B(  4-O ,  7-H ) :   0.9613 

-------
TIMINGS
-------

Total SCF time: 0 days 0 hours 0 min 18 sec 

Total time                  ....      18.887 sec
Sum of individual times     ....      18.876 sec  ( 99.9%)

SCF preparation             ....       0.353 sec  (  1.9%)
Fock matrix formation       ....      18.370 sec  ( 97.3%)
  Startup                   ....       0.008 sec  (  0.0% of F)
  Split-RI-J                ....       0.679 sec  (  3.7% of F)
  Chain of spheres X        ....      15.844 sec  ( 86.2% of F)
  XC integration            ....       1.797 sec  (  9.8% of F)
    Basis function eval.    ....       0.474 sec  ( 26.4% of XC)
    Density eval.           ....       0.401 sec  ( 22.3% of XC)
    XC-Functional eval.     ....       0.249 sec  ( 13.8% of XC)
    XC-Potential eval.      ....       0.603 sec  ( 33.6% of XC)
Diagonalization             ....       0.000 sec  (  0.0%)
Density matrix formation    ....       0.015 sec  (  0.1%)
Total Energy calculation    ....       0.013 sec  (  0.1%)
Population analysis         ....       0.011 sec  (  0.1%)
Orbital Transformation      ....       0.016 sec  (  0.1%)
Orbital Orthonormalization  ....       0.000 sec  (  0.0%)
DIIS solution               ....       0.063 sec  (  0.3%)
SOSCF solution              ....       0.034 sec  (  0.2%)
Finished LeanSCF after  18.9 sec

Maximum memory used throughout the entire LEANSCF-calculation: 13.5 MB


-------------------------------------------------------------------------------
                          DFT DISPERSION CORRECTION                            
                                                                               
                                DFTD4 V3.4.0                                   
-------------------------------------------------------------------------------
The wB97X-3c composite method is recognized
Using three-body term ABC
Active option DFTDOPT                   ...         5   

-------------------------   ----------------
Dispersion correction           -0.007078018
-------------------------   ----------------


-------------------------   --------------------
FINAL SINGLE POINT ENERGY       -52.460315006249
-------------------------   --------------------



           ************************************************************
           *        Program running with 4 parallel MPI-processes     *
           *              working on a common directory               *
           ************************************************************

------------------------------------------------------------------------------
                              ORCA PROPERTY CALCULATIONS
------------------------------------------------------------------------------

GBWName                                 ... orca.gbw
Number of atoms                         ...     11
Number of basis functions               ...     95
Max core memory                         ...   8000 MB

Electric properties:
Dipole moment                           ... YES
Quadrupole moment                       ...  NO
Static polarizability (Dipole/Dipole)   ...  NO
Static polarizability (Dipole/Quad.)    ...  NO
Static polarizability (Quad./Quad.)     ...  NO
Static polarizability (Velocity)        ...  NO

Atomic electric properties:
Dipole moment                           ...  NO
Quadrupole moment                       ...  NO
Static polarizability                   ...  NO

Choice of electric origin               ... Center of mass
Position of electric origin             ...    -0.006131    -0.008472     0.024307

General magnetic properties:
Magnetizability                         ...  NO

EPR properties:
g-Tensor (aka g-matrix)                 ...  NO
Zero-Field splitting spin-orbit         ...  NO
Zero-field splitting spin-spin          ...  NO
Hyperfine couplings                     ...  NO (   0 nuclei)
Quadrupole couplings                    ...  NO (   0 nuclei)
Contact density                         ...  NO (   0 nuclei)

NMR properties:
Chemical shifts                         ...  NO (   0 nuclei)
Spin-rotation constants                 ...  NO (   0 nuclei)
Spin-spin couplings                     ...  NO (   0 nuclei,    0 pairs)

Choice of magnetic origin               ... GIAO
Position of magnetic origin             ...     0.000000     0.000000     0.000000

Properties with geometric perturbations:
SCF Hessian                             ...  NO
IR spectrum                             ...  NO
VCD spectrum                            ...  NO
X-ray spectroscopy properties:
SCF XES/XAS/RIXS spectra                ...  NO


-------------
DIPOLE MOMENT
-------------

Method             : SCF
Type of density    : Electron Density
Multiplicity       :   2
Irrep              :   0
Energy             :   -52.4532369884228515 Eh
Relativity type    : 
Basis              : AO
                                X                 Y                 Z
Electronic contribution:      0.545419034       3.394290258      -0.164212013
Nuclear contribution   :     -0.607979072      -3.580376510       0.321788324
                        -----------------------------------------
Total Dipole Moment    :     -0.062560038      -0.186086251       0.157576311
                        -----------------------------------------
Magnitude (a.u.)       :      0.251738247
Magnitude (Debye)      :      0.639867773



--------------------
Rotational spectrum 
--------------------
 
Rotational constants in cm-1:             0.303234             0.148466             0.109243 
Rotational constants in MHz :          9090.719762          4450.894886          3275.030473 

Dipole components along the rotational axes: 
x,y,z [a.u.] :     0.163396    -0.095114     0.166215 
x,y,z [Debye]:     0.415319    -0.241760     0.422484 

 

Dipole moment calculation done in   0.0 sec 

Maximum memory used throughout the entire PROP-calculation: 6.4 MB

--------------------------------
SUGGESTED CITATIONS FOR THIS RUN
--------------------------------

Below you find a list of papers that are relevant to this ORCA run
We neither can nor want to force you to cite these papers, but we appreciate if you do
You receive ORCA, which is the product of decades of hard work by many enthusiastic individuals, for free
The only thing we kindly ask in return is that you cite our papers,
We deeply appreciate it, if you show your appreciation for ORCA by not just citing the generic ORCA reference.

Please note that relegating all ORCA citations to the supporting information does *not* help us.
SI sections are not indexed - citations you put there will not count into any citation statistics
But we need these citations in order to attract the funding resources that allow us to do what we are doing

Therefore, if you are a happy ORCA user, please consider citing a few of the papers listed below in the main body of your paper

In addition to the list printed below, the program has created the file orca.bibtex that contains the list in bibtex format
You can import this file easily into all common literature databanks and citation aid programs


List of essential papers. We consider these as the minimum necessary citations

  1. Neese,F.
     Software update: the ORCA program system, version 5.0
     WIRES Comput. Molec. Sci., 2022 12(1)e1606
     doi.org/10.1002/wcms.1606
  2. Mueller,M.; Hansen,A.; Grimme,S.
     wB97X-3c: A composite range-separated hybrid DFT method with a molecule-optimized polarized valence double-zeta basis set
     J. Chem. Phys., 2023 158 014103
     doi.org/10.1063/5.0133026

List of papers to cite with high priority. The work reported in these papers was absolutely
necessary for this run to complete.
Our perspective: the developers of density functionals and basis sets usually get cited in chemistry papers
Good! But without the algorithms to do something with them, the functionals or basis sets would not do anything.
Hence, in our opinion, the algorithm design and method developments papers are equally worthy of getting cited

  1. Neese,F.
     An improvement of the resolution of the identity approximation for the formation of the Coulomb matrix
     J. Comp. Chem., 2003 24(14)1740-1747
     doi.org/10.1002/jcc.10318
  2. Neese,F.; Wennmohs,F.; Hansen,A.; Becker,U.
     Efficient, approximate and parallel Hartree-Fock and hybrid DFT calculations. A 'chain-of-spheres' algorithm for the Hartree-Fock exchange
     Chem. Phys., 2009 356(1-3)98-109
     doi.org/10.1016/j.chemphys.2008.10.036
  3. Helmich-Paris,B.; de Souza,B.; Neese,F.; Izsák,R.
     An improved chain of spheres for exchange algorithm
     J. Chem. Phys., 2021 155 104109
     doi.org/doi: 10.1063/5.0058766.
  4. Neese,F.
     The SHARK Integral Generation and Digestion System
     J. Comp. Chem., 2022  1-16
     doi.org/10.1002/jcc.26942
  5. Caldeweyher,E.; Bannwarth,C.; Grimme,S.
     Extension of the D3 dispersion coefficient model
     J. Chem. Phys., 2017 147 034112
     doi.org/10.1063/1.4993215
  6. Caldeweyher,E.; Ehlert,S.; Hansen,A.; Neugebauer,H.; Spicher,S.; Bannwarth,C.; Grimme,S.
     A generally applicable atomic-charge dependent London dispersion correction
     J. Chem. Phys., 2019 150 154122
     doi.org/10.1063/1.5090222
  7. Caldeweyher,E.; Mewes,J.; Ehlert,S.; Grimme,S.
     Extension and evaluation of the D4 London-dispersion model for periodic systems
     Phys. Chem. Chem. Phys., 2020 22(16)8499-8512
     doi.org/10.1039/D0CP00502A
  8. Wittmann,L.; Gordiy,I.; Friede,M.; Helmich-Paris,B.; Grimme,S.; Hansen,A.; Bursch,M.
     Extension of the D3 and D4 London Dispersion Corrections to the full Actinides Series
     Phys. Chem. Chem. Phys., 2024 26(32)21379-21394
     doi.org/https://doi.org/10.1039/D4CP01514B 

List of suggested additional citations. These are papers that are important in the 'surrounding' of 
of this run, or papers that preceded the highly important papers. If you like your results we are grateful for a citation.

  1. Izsak,R.; Neese,F.
     An overlap fitted chain of spheres exchange method
     J. Chem. Phys., 2011 135 144105
     doi.org/10.1063/1.3646921
  2. Izsak,R.; Hansen,A.; Neese,F.
     The resolution of identity and chain of spheres approximations for the LPNO-CCSD singles Fock term
     Molec. Phys., 2012 110 2413-2417
     doi.org/10.1080/00268976.2012.687466
  3. Neese,F.
     The ORCA program system
     WIRES Comput. Molec. Sci., 2012 2(1)73-78
     doi.org/10.1002/wcms.81
  4. Izsak,R.; Neese,F.; Klopper,W.
     Robust fitting techniques in the chain of spheres approximation to the Fock exchange: The role of the complementary space
     J. Chem. Phys., 2013 139 
     doi.org/10.1063/1.4819264
  5. Neese,F.
     Software update: the ORCA program system, version 4.0
     WIRES Comput. Molec. Sci., 2018 8(1)1-6
     doi.org/10.1002/wcms.1327
  6. Neese,F.; Wennmohs,F.; Becker,U.; Riplinger,C.
     The ORCA quantum chemistry program package
     J. Chem. Phys., 2020 152 Art. No. L224108
     doi.org/10.1063/5.0004608

List of optional additional citations

  1. Neese,F.
     Approximate second-order SCF convergence for spin unrestricted wavefunctions
     Chem. Phys. Lett., 2000 325(1-3)93-98
     doi.org/10.1016/s0009-2614(00)00662-x

Timings for individual modules:

Sum of individual times          ...       22.470 sec (=   0.374 min)
Startup calculation              ...        1.272 sec (=   0.021 min)   5.7 %
SCF iterations                   ...       20.665 sec (=   0.344 min)  92.0 %
Property calculations            ...        0.533 sec (=   0.009 min)   2.4 %
                             ****ORCA TERMINATED NORMALLY****
TOTAL RUN TIME: 0 days 0 hours 0 minutes 23 seconds 52 msec
