11
 energy: -17.056026454038 gnorm: 0.030208349772 xtb: 6.7.1 (edcfbbe)
C           -0.45823528247463       -1.59722277319090       -0.26683780366635
C            0.72619670143537       -1.01204096740196        0.38500452464712
C            0.03164048056408        1.19833434958638       -0.09319253366248
O            0.97995749956773        0.37997761755952        0.02102384053888
O           -1.19385693132430        0.95473671450023        0.04163225730489
H           -0.55916079950763       -1.51640475534196       -1.33854081239702
H           -0.92645596733753       -2.44312050824014        0.20526897027998
H           -1.39655991991865       -0.05016539810412        0.13197545864111
H            1.66099749272141       -1.52240263548987        0.09551616449463
H            0.66119366130362       -1.05101510141868        1.47960260277342
H            0.31787798991930        2.22967577712463       -0.33628971748082
