 Entering Gaussian System
 *********************************************
 Gaussian 98:
 frequency output generated by the xtb code
 *********************************************
                         Standard orientation:
 --------------------------------------------------------------------
  Center     Atomic     Atomic              Coordinates (Angstroms)
  Number     Number      Type              X           Y           Z
 --------------------------------------------------------------------
    1          6             0        0.217685   -2.130582   -0.584494
    2          6             0        0.319615   -1.084859    0.480432
    3          6             0       -0.014946    1.279813   -0.142629
    4          8             0        0.614516    0.255050   -0.198295
    5          8             0       -1.076764    1.650214    0.434324
    6          1             0        1.127787   -2.183448   -1.177585
    7          1             0        0.088255   -3.097356   -0.093509
    8          1             0       -0.639136   -1.971167   -1.235195
    9          1             0        1.189359   -1.225621    1.124471
   10          1             0       -0.596092   -0.951702    1.058034
   11          1             0       -1.370556    2.576425    0.314375
 --------------------------------------------------------------------
     1 basis functions        1 primitive gaussians
     1 alpha electrons        1 beta electrons

 Harmonic frequencies (cm**-1), IR intensities (km*mol⁻¹),
 Raman scattering activities (A**4/amu), Raman depolarization ratios,
 reduced masses (AMU), force constants (mDyne/A) and normal coordinates:
                      1                      2                      3
                        a                      a                      a 
 Frequencies --    36.7268               169.7747               223.7482
 Red. masses --    10.3721                 8.8281                 4.5309
 Frc consts  --     0.0000                 0.0000                 0.0000
 IR Inten    --     1.0720                 8.7855                 1.3383
 Raman Activ --     0.0000                 0.0000                 0.0000
 Depolar     --     0.0000                 0.0000                 0.0000
 Atom AN      X      Y      Z        X      Y      Z        X      Y      Z
   1   6     0.41  -0.23   0.06     0.09  -0.09  -0.14    -0.03   0.06   0.06
   2   6    -0.31  -0.01  -0.09     0.18  -0.29   0.07    -0.32   0.16  -0.03
   3   6    -0.06   0.04  -0.05    -0.09  -0.04   0.07     0.16   0.05  -0.00
   4   8    -0.31  -0.09  -0.25    -0.23  -0.12   0.22     0.15   0.03  -0.06
   5   8     0.21   0.29   0.29    -0.03   0.51  -0.15     0.07  -0.28   0.01
   6   1     0.21  -0.05   0.15    -0.09   0.21  -0.24    -0.13   0.35  -0.21
   7   1     0.10  -0.05   0.05     0.35  -0.09  -0.09     0.51  -0.04   0.04
   8   1     0.20  -0.15  -0.11    -0.15  -0.15   0.16    -0.23  -0.29   0.23
   9   1    -0.17   0.08   0.10     0.12  -0.07  -0.07    -0.16   0.04   0.08
  10   1    -0.18  -0.02  -0.16     0.10  -0.16   0.11    -0.14   0.10  -0.10
  11   1     0.09   0.09   0.09     0.09   0.15  -0.12    -0.03  -0.08   0.06
                      4                      5                      6
                        a                      a                      a 
 Frequencies --   300.4957               437.2396               580.5464
 Red. masses --    10.2388                10.6892                 6.2552
 Frc consts  --     0.0000                 0.0000                 0.0000
 IR Inten    --     7.2712               112.8542                70.9815
 Raman Activ --     0.0000                 0.0000                 0.0000
 Depolar     --     0.0000                 0.0000                 0.0000
 Atom AN      X      Y      Z        X      Y      Z        X      Y      Z
   1   6     0.08   0.48  -0.09    -0.05  -0.19  -0.05    -0.01  -0.06  -0.01
   2   6    -0.07   0.05   0.35    -0.05  -0.06  -0.15    -0.04  -0.28   0.16
   3   6    -0.16  -0.28  -0.38    -0.30  -0.09  -0.39    -0.17   0.06  -0.39
   4   8    -0.10  -0.29   0.02     0.33   0.27   0.34     0.16   0.29   0.11
   5   8     0.22  -0.05   0.12     0.13   0.13   0.28    -0.03  -0.07  -0.07
   6   1     0.05   0.26   0.00    -0.02  -0.09  -0.02     0.00   0.01   0.01
   7   1     0.01   0.05  -0.21     0.01  -0.02   0.06    -0.00  -0.05  -0.06
   8   1     0.05   0.25  -0.04    -0.03  -0.12  -0.01    -0.00   0.01   0.00
   9   1    -0.03  -0.01   0.11    -0.06  -0.07   0.01    -0.02  -0.05   0.05
  10   1    -0.03  -0.00   0.09    -0.05   0.01  -0.10    -0.03  -0.03   0.01
  11   1    -0.02  -0.05  -0.10    -0.27  -0.12  -0.37     0.34   0.18   0.64
                      7                      8                      9
                        a                      a                      a 
 Frequencies --   585.6028               612.3637               819.9255
 Red. masses --    10.1996                13.0048                 2.3715
 Frc consts  --     0.0000                 0.0000                 0.0000
 IR Inten    --    75.1816                 3.5786                10.9868
 Raman Activ --     0.0000                 0.0000                 0.0000
 Depolar     --     0.0000                 0.0000                 0.0000
 Atom AN      X      Y      Z        X      Y      Z        X      Y      Z
   1   6     0.00   0.05  -0.01    -0.02   0.04   0.05     0.09  -0.01  -0.00
   2   6     0.07   0.48  -0.31    -0.05  -0.24   0.19     0.29  -0.03   0.01
   3   6    -0.23  -0.43   0.05    -0.19  -0.30   0.32     0.02   0.06  -0.03
   4   8     0.18  -0.28   0.20     0.45   0.16  -0.50    -0.12  -0.04   0.02
   5   8    -0.11   0.14  -0.02    -0.20   0.21   0.05     0.00  -0.00  -0.00
   6   1    -0.02  -0.06  -0.03    -0.00   0.08   0.01    -0.19  -0.22  -0.30
   7   1     0.02   0.10   0.15    -0.00  -0.04  -0.09    -0.12   0.01  -0.02
   8   1    -0.01  -0.07   0.00    -0.01   0.07   0.03    -0.15   0.27   0.28
   9   1    -0.04   0.02  -0.02    -0.08  -0.02   0.14    -0.22   0.14   0.44
  10   1    -0.00   0.08  -0.10    -0.06   0.10  -0.07    -0.22  -0.09  -0.44
  11   1     0.33   0.18   0.18     0.09   0.08  -0.16    -0.04  -0.01   0.02
                     10                     11                     12
                        a                      a                      a 
 Frequencies --   952.6750              1022.2399              1055.6400
 Red. masses --     4.5100                 3.1637                 4.0612
 Frc consts  --     0.0000                 0.0000                 0.0000
 IR Inten    --    60.2838                43.1531               256.0206
 Raman Activ --     0.0000                 0.0000                 0.0000
 Depolar     --     0.0000                 0.0000                 0.0000
 Atom AN      X      Y      Z        X      Y      Z        X      Y      Z
   1   6     0.08   0.44  -0.10    -0.14   0.05  -0.07    -0.12   0.00   0.01
   2   6    -0.08  -0.29   0.02     0.27  -0.02   0.06     0.21  -0.04  -0.02
   3   6     0.00  -0.03   0.01     0.03   0.04  -0.02    -0.01   0.11  -0.03
   4   8    -0.03   0.04  -0.06    -0.02  -0.16  -0.05    -0.24   0.15   0.06
   5   8     0.03  -0.05   0.00    -0.05   0.17  -0.03    -0.01  -0.24   0.09
   6   1    -0.01  -0.26  -0.03     0.07   0.02   0.13     0.05   0.06   0.12
   7   1     0.02   0.40   0.57     0.14   0.05   0.11     0.10  -0.04  -0.03
   8   1    -0.07  -0.23   0.03     0.05  -0.16  -0.16     0.04  -0.06  -0.10
   9   1     0.00  -0.10  -0.04    -0.15  -0.52   0.20    -0.08  -0.24   0.12
  10   1    -0.04  -0.22  -0.00     0.03   0.36  -0.14     0.01   0.30  -0.14
  11   1     0.09   0.01  -0.07    -0.40  -0.05   0.28     0.59   0.08  -0.42
                     13                     14                     15
                        a                      a                      a 
 Frequencies --  1094.7061              1187.4180              1228.1053
 Red. masses --     9.2323                 3.7639                 2.8597
 Frc consts  --     0.0000                 0.0000                 0.0000
 IR Inten    --     8.4371                 9.2623                 3.1697
 Raman Activ --     0.0000                 0.0000                 0.0000
 Depolar     --     0.0000                 0.0000                 0.0000
 Atom AN      X      Y      Z        X      Y      Z        X      Y      Z
   1   6    -0.02   0.28   0.51     0.38  -0.05   0.07     0.08   0.05  -0.11
   2   6     0.02  -0.33  -0.54    -0.27   0.07  -0.03    -0.08  -0.29  -0.03
   3   6    -0.00  -0.02  -0.01     0.03   0.06  -0.04    -0.01  -0.10   0.04
   4   8    -0.03  -0.03   0.07     0.01  -0.03  -0.03    -0.09  -0.01   0.12
   5   8     0.02   0.02  -0.02    -0.08   0.00   0.05     0.07   0.01  -0.05
   6   1     0.04   0.24   0.19    -0.12  -0.19  -0.29     0.01  -0.09  -0.03
   7   1     0.02  -0.03  -0.07    -0.13  -0.01  -0.03    -0.01   0.07   0.08
   8   1     0.03   0.21   0.13    -0.07   0.26   0.29    -0.06   0.02   0.08
   9   1     0.01  -0.09  -0.16    -0.03  -0.54  -0.19     0.12   0.47  -0.07
  10   1    -0.03  -0.06  -0.21     0.09   0.26   0.20     0.09   0.75  -0.03
  11   1    -0.07  -0.01   0.05     0.05   0.02  -0.04    -0.07  -0.02   0.05
                     16                     17                     18
                        a                      a                      a 
 Frequencies --  1275.3168              1361.4519              1390.4549
 Red. masses --    13.8205                 2.5644                 2.0059
 Frc consts  --     0.0000                 0.0000                 0.0000
 IR Inten    --   392.5393                83.9695                11.8354
 Raman Activ --     0.0000                 0.0000                 0.0000
 Depolar     --     0.0000                 0.0000                 0.0000
 Atom AN      X      Y      Z        X      Y      Z        X      Y      Z
   1   6    -0.02   0.06  -0.01    -0.01   0.31   0.14     0.11  -0.11  -0.04
   2   6    -0.01  -0.09   0.00    -0.01   0.06   0.13     0.05   0.05   0.24
   3   6     0.33   0.29  -0.32    -0.02  -0.05   0.03     0.02   0.01  -0.01
   4   8     0.25  -0.39  -0.01    -0.02   0.02   0.00    -0.01  -0.02   0.00
   5   8    -0.54   0.13   0.32     0.04   0.00  -0.03    -0.02   0.00   0.01
   6   1     0.03  -0.04   0.05    -0.05  -0.54  -0.01    -0.00   0.40  -0.06
   7   1     0.02  -0.01  -0.03     0.13  -0.22  -0.47    -0.43   0.09   0.09
   8   1    -0.03  -0.05   0.01    -0.02  -0.34  -0.05    -0.06  -0.20   0.04
   9   1     0.05   0.16  -0.01     0.17  -0.04  -0.23     0.28  -0.10  -0.36
  10   1    -0.01   0.01  -0.01    -0.15   0.01  -0.22    -0.28   0.06  -0.45
  11   1     0.09   0.08  -0.09    -0.02  -0.01   0.02     0.00   0.00  -0.00
                     19                     20                     21
                        a                      a                      a 
 Frequencies --  1397.3459              1447.6885              1800.4361
 Red. masses --     1.9546                 2.0797                13.1264
 Frc consts  --     0.0000                 0.0000                 0.0000
 IR Inten    --    29.7362                14.3730               502.2323
 Raman Activ --     0.0000                 0.0000                 0.0000
 Depolar     --     0.0000                 0.0000                 0.0000
 Atom AN      X      Y      Z        X      Y      Z        X      Y      Z
   1   6     0.16   0.15   0.05     0.01   0.04   0.29    -0.00  -0.02  -0.00
   2   6     0.05  -0.04  -0.17    -0.00  -0.08  -0.03     0.01   0.04  -0.01
   3   6    -0.01   0.01   0.01     0.02   0.01  -0.02     0.56  -0.59  -0.17
   4   8    -0.02   0.01   0.01     0.00  -0.02   0.01    -0.25   0.40   0.02
   5   8     0.02  -0.01  -0.01    -0.03   0.00   0.02    -0.22   0.09   0.11
   6   1     0.02   0.14   0.01    -0.38   0.09  -0.55     0.00   0.01   0.00
   7   1    -0.51  -0.03  -0.24    -0.06   0.02   0.05    -0.00  -0.00   0.00
   8   1    -0.18  -0.54   0.12     0.40  -0.09  -0.51     0.00   0.01  -0.00
   9   1    -0.22   0.02   0.29    -0.02   0.06   0.05    -0.02  -0.03   0.01
  10   1     0.19   0.01   0.25     0.04   0.06   0.04     0.01  -0.02   0.01
  11   1    -0.00  -0.00   0.00     0.01   0.00  -0.01    -0.06  -0.00   0.04
                     22                     23                     24
                        a                      a                      a 
 Frequencies --  2978.7093              2990.3846              2993.9960
 Red. masses --     1.4928                 1.7445                 2.0547
 Frc consts  --     0.0000                 0.0000                 0.0000
 IR Inten    --     4.4345                77.0695                 1.6168
 Raman Activ --     0.0000                 0.0000                 0.0000
 Depolar     --     0.0000                 0.0000                 0.0000
 Atom AN      X      Y      Z        X      Y      Z        X      Y      Z
   1   6    -0.00  -0.05   0.04     0.03   0.22  -0.12    -0.03   0.01   0.00
   2   6    -0.03  -0.00  -0.20    -0.01   0.01  -0.05     0.30  -0.05  -0.01
   3   6    -0.00  -0.00   0.00    -0.00  -0.00   0.00    -0.00   0.00   0.00
   4   8     0.00   0.01  -0.01    -0.00   0.00   0.00     0.00  -0.00  -0.00
   5   8     0.00   0.00  -0.00     0.00   0.00  -0.00    -0.00  -0.00   0.00
   6   1     0.05  -0.01  -0.02    -0.04   0.03   0.01     0.08  -0.00  -0.05
   7   1     0.03   0.19  -0.10    -0.11  -0.83   0.42    -0.01  -0.01   0.00
   8   1    -0.06   0.00  -0.04     0.03   0.02   0.00     0.06  -0.01   0.05
   9   1     0.60  -0.10   0.42     0.14  -0.03   0.10    -0.46   0.08  -0.36
  10   1    -0.52   0.07   0.30    -0.12   0.02   0.07    -0.61   0.09   0.40
  11   1     0.00  -0.00   0.00     0.00  -0.01   0.00    -0.00   0.00  -0.00
                     25                     26                     27
                        a                      a                      a 
 Frequencies --  3048.4125              3056.3488              3263.2771
 Red. masses --     1.4568                 1.9800                 1.8630
 Frc consts  --     0.0000                 0.0000                 0.0000
 IR Inten    --    13.6739                 1.2720               441.4305
 Raman Activ --     0.0000                 0.0000                 0.0000
 Depolar     --     0.0000                 0.0000                 0.0000
 Atom AN      X      Y      Z        X      Y      Z        X      Y      Z
   1   6     0.04  -0.01   0.20    -0.29   0.04   0.02     0.00  -0.00   0.00
   2   6     0.01   0.00   0.02    -0.04   0.01   0.00     0.00   0.00   0.00
   3   6    -0.00  -0.00   0.00    -0.00  -0.00   0.00    -0.02   0.01   0.01
   4   8    -0.00  -0.00   0.00    -0.00   0.00  -0.00     0.01  -0.01  -0.00
   5   8     0.00   0.00  -0.00     0.00   0.00  -0.00    -0.07   0.23  -0.03
   6   1     0.50  -0.03  -0.30     0.63  -0.03  -0.43    -0.00   0.00   0.00
   7   1    -0.00  -0.07   0.05    -0.04  -0.01   0.01     0.00   0.01  -0.00
   8   1    -0.62   0.12  -0.45     0.43  -0.09   0.35     0.00   0.00   0.00
   9   1    -0.05   0.01  -0.03     0.06  -0.01   0.05    -0.00   0.00  -0.00
  10   1     0.04  -0.01  -0.02     0.08  -0.01  -0.05    -0.00  -0.00   0.00
  11   1     0.00  -0.00   0.00     0.00  -0.00   0.00     0.31  -0.92   0.11
