
                                 *****************
                                 * O   R   C   A *
                                 *****************

                                            #,                                       
                                            ###                                      
                                            ####                                     
                                            #####                                    
                                            ######                                   
                                           ########,                                 
                                     ,,################,,,,,                         
                               ,,#################################,,                 
                          ,,##########################################,,             
                       ,#########################################, ''#####,          
                    ,#############################################,,   '####,        
                  ,##################################################,,,,####,       
                ,###########''''           ''''###############################       
              ,#####''   ,,,,##########,,,,          '''####'''          '####       
            ,##' ,,,,###########################,,,                        '##       
           ' ,,###''''                  '''############,,,                           
         ,,##''                                '''############,,,,        ,,,,,,###''
      ,#''                                            '''#######################'''  
     '                                                          ''''####''''         
             ,#######,   #######,   ,#######,      ##                                
            ,#'     '#,  ##    ##  ,#'     '#,    #''#        ,####,   ,####,        
            ##       ##  ##   ,#'  ##            #'  '#       #'       #'  '#        
            ##       ##  #######   ##           ,######,      #####,   #    #        
            '#,     ,#'  ##    ##  '#,     ,#' ,#      #,     #,   #   #,  ,#        
             '#######'   ##     ##  '#######'  #'      '#     '####' # '####'        



                #########################################################
                #                        -***-                          #
                #          Department of theory and spectroscopy        #
                #                                                       #
                #                      Frank Neese                      #
                #                                                       #
                #     Directorship, Architecture, Infrastructure        #
                #                    SHARK, DRIVERS                     #
                #        Core code/Algorithms in most modules           #
                #                                                       #
                #        Max Planck Institute fuer Kohlenforschung      #
                #                Kaiser Wilhelm Platz 1                 #
                #                 D-45470 Muelheim/Ruhr                 #
                #                      Germany                          #
                #                                                       #
                #                  All rights reserved                  #
                #                        -***-                          #
                #########################################################


                         Program Version 6.0.1  -  RELEASE   -


 With contributions from (in alphabetic order):
[Max-Planck-Institut fuer Kohlenforschung]                               
  Daniel Aravena         : Magnetic Suceptibility                        
  Michael Atanasov       : Ab Initio Ligand Field Theory (pilot matlab implementation)
  Alexander A. Auer      : GIAO ZORA, VPT2 properties, NMR spectrum      
  Ute Becker             : All parallelization in ORCA, NUMFREQ, NUMCALC 
  Giovanni Bistoni       : ED, misc. LED, open-shell LED, HFLD           
  Martin Brehm           : Molecular dynamics                            
  Dmytro Bykov           : pre 5.0 version of the SCF Hessian            
  Marcos Casanova-Páez   : Triplet and SCS-CIS(D). UHF-(DLPNO)-IP/EA/STEOM-CCSD. UHF-CVS-IP/STEOM-CCSD   
  Vijay G. Chilkuri      : MRCI spin determinant printing, contributions to CSF-ICE 
  Pauline Colinet        : FMM embedding                                 
  Dipayan Datta          : RHF DLPNO-CCSD density                        
  Achintya Kumar Dutta   : EOM-CC, STEOM-CC                              
  Nicolas Foglia         : Exact transition moments, OPA infrastructure, MCD improvements    
  Dmitry Ganyushin       : Spin-Orbit,Spin-Spin,Magnetic field MRCI      
  Miquel Garcia-Rates    : C-PCM and meta-GGA Hessian, CCSD/C-PCM, Gaussian charge scheme 
  Tiago L. C. Gouveia    : GS-ROHF, GS-ROCIS                             
  Yang Guo               : DLPNO-NEVPT2, F12-NEVPT2, CIM, IAO-localization        
  Andreas Hansen         : Spin unrestricted coupled pair/coupled cluster methods 
  Ingolf Harden          : AUTO-CI MPn and infrastructure                
  Benjamin Helmich-Paris : MC-RPA, TRAH-(SCF,CASSCF), AVAS, COSX integrals, SCF dyn. polar. 
  Lee Huntington         : MR-EOM, pCC                                   
  Robert Izsak           : Overlap fitted RIJCOSX, COSX-SCS-MP3, EOM     
  Riya Kayal             : Wick's Theorem for AUTO-CI, AUTO-CI UHF-CCSDT 
  Emily Kempfer          : AUTO-CI, RHF CISDT and CCSDT                  
  Christian Kollmar      : KDIIS, OOCD, Brueckner-CCSD(T), CCSD density, CASPT2, CASPT2-K, improved NEVPT2 
  Axel Koslowski         : Symmetry handling                             
  Simone Kossmann        : meta-GGA functionals, TD-DFT gradient, OOMP2, (MP2 Hessian; deprecated post 5.0) 
  Lucas Lang             : DCDCAS                                        
  Marvin Lechner         : AUTO-CI (C++ implementation), FIC-MRCC        
  Spencer Leger          : CASSCF response                               
  Dagmar Lenk            : GEPOL surface, SMD, ORCA-2-JSON               
  Dimitrios Liakos       : Extrapolation schemes; Compound Job, initial MDCI parallelization 
  Dimitrios Manganas     : Further ROCIS development; embedding schemes. LFT, Crystal Embedding 
  Dimitrios Pantazis     : SARC Basis sets                               
  Anastasios Papadopoulos: AUTO-CI, single reference methods and gradients 
  Taras Petrenko         : pre 6.0 DFT Hessian and TD-DFT gradient, (ASA, deprecated), ECA, 1-Electron XAS/XES, NRVS 
  Peter Pinski           : DLPNO-MP2, DLPNO-MP2 Gradient                 
  Christoph Reimann      : Effective Core Potentials                     
  Marius Retegan         : Local ZFS, SOC                                
  Christoph Riplinger    : Optimizer, TS searches, QM/MM, DLPNO-CCSD(T), (RO)-DLPNO pert. Triples 
  Michael Roemelt        : Original ROCIS implementation                 
  Masaaki Saitow         : Open-shell DLPNO-CCSD energy and density      
  Barbara Sandhoefer     : DKH picture change effects                    
  Kantharuban Sivalingam : CASSCF convergence/infrastructure, NEVPT2 and variants, FIC-MRCI 
  Bernardo de Souza      : ESD, SOC TD-DFT                               
  Georgi L. Stoychev     : AutoAux, RI-MP2 NMR, DLPNO-MP2 response, X2C  
  Van Anh Tran           : RI-MP2 g-tensors                              
  Willem Van den Heuvel  : Paramagnetic NMR                              
  Zikuan Wang            : NOTCH, Electric field optimization            
  Frank Wennmohs         : Technical directorship and infrastructure     
  Hang Xu                : AUTO-CI-Response properties                   
                                                                         
[FACCTs GmbH]                                                            
  Markus Bursch, Miquel Garcia-Rates, Christoph Riplinger, Bernardo de Souza, Georgi L. Stoychev 
                                                                 
  APM, Basis sets (HGBS, AHGBS, def-TZVP (Ac-Lr), def2-XVPD (La-Lu)), CI-OPT, improved COSX, DLPNO-Multilevel,           
  DOCKER, DRACO, updates on ESD, GOAT, IRC, LR-CPCM, MBIS, meta-GGA TD-DFT gradient, ML-optimized integration grids, 
  MM, NACMEs, nearIR, NEB, NEB-TS, NL-DFT gradient (VV10), 2- and 3-layer-ONIOM, interface openCOSMO-RS, QMMM,   
  Crystal-QMMM, SF, symmetry and pop. for TD-DFT, r2SCAN hybrids, SOLVATOR                                   
                                                                         
[Other institutions]                                                     
  V. Asgeirsson          : NEB                                           
  Christoph Bannwarth    : sTDA-DFT, sTD-DFT, PBEh-3c, B97-3c, D3        
  Sebastian Ehlert       : rSCAN, r2SCAN, r2SCAN-3c, D4, dhf basis sets  
  Marvin Friede          : D4 for Fr, Ra, Ac-Lr                          
  Lars Goerigk           : TD-DFT with DH, B97 family of functionals     
  Stefan Grimme          : VdW corrections, initial TS optimization, DFT functionals, gCP, sTDA/sTD-DF 
  Waldemar Hujo          : DFT-NL                                        
  H. Jonsson             : NEB                                           
  Holger Kruse           : gCP                                           
  Marcel Mueller         : wB97X-3c, vDZP basis set                      
  Hagen Neugebauer       : wr2SCAN                                       
  Tobias Risthaus        : range-separated hybrid DFT                    
  Lukas Wittmann         : regularized MP2, r2SCAN double-hybrids, wr2SCAN        
                                                                         
We gratefully acknowledge several colleagues who have allowed us to      
interface, adapt or use parts of their codes:                            
  Ed Valeev, F. Pavosevic, A. Kumar             : LibInt (2-el integral package), F12 methods 
  Garnet Chan, S. Sharma, J. Yang, R. Olivares  : DMRG                   
  Ulf Ekstrom                                   : XCFun DFT Library      
  Mihaly Kallay                                 : mrcc  (arbitrary order and MRCC methods)
  Frank Weinhold                                : gennbo (NPA and NBO analysis)           
  Simon Mueller                                 : openCOSMO-RS                            
  Christopher J. Cramer and Donald G. Truhlar   : smd solvation model                     
  S Lehtola, MJT Oliveira, MAL Marques          : LibXC Library                           
  Liviu Ungur et al                             : ANISO software                          


 Your calculation uses the libint2 library for the computation of 2-el integrals
 For citations please refer to: http://libint.valeyev.net

 Your ORCA version has been built with support for libXC version: 6.2.2
 For citations please refer to: https://libxc.gitlab.io

 This ORCA versions uses:
   CBLAS   interface :  Fast vector & matrix operations
   LAPACKE interface :  Fast linear algebra routines
   SCALAPACK package :  Parallel linear algebra routines
   Shared memory     :  Shared parallel matrices
   BLAS/LAPACK       :  OpenBLAS 0.3.27  USE64BITINT DYNAMIC_ARCH NO_AFFINITY Haswell SINGLE_THREADED
        Core in use  :  Haswell
   Copyright (c) 2011-2014, The OpenBLAS Project


NOTE: MaxCore=8000 MB was set to SCF,MP2,MDCI,CIPSI,MRCI and CIS
      => If you want to overwrite this, your respective input block should be placed after the MaxCore statement


***************************************
The coordinates will be read from file: isomer.xyz
***************************************


Your calculation utilizes the atom-pairwise dispersion correction
based on EEQ partial charges (D4)


================================================================================

cite the ECPs for C  [vDZP-ECP], O  [vDZP-ECP] as follows:
   B-Ne (ecp-2-mwb), Al-Ar (ecp-10-mwb), Ga-Kr (ecp-28-mwb), Y-Cd (ecp-28-mwb), In-Xe (ecp-46-mwb):
     A. Bergner, M. Dolg, W. Küchle, H. Stoll, and H. Preuß, Mol. Phys. 80, 1431 (1993)., T. Leininger, A. Berning, A. Nicklass, H. Stoll, H.-J. Werner, and H.-J.Flad, Chem. Phys. 217, 19 (1997).
   Na-Mg, K-Ca, Rb-Sr, Cs-Ba (CRENBL):
     L. Fernandez Pacios and P. A. Christiansen, J. Chem. Phys. 82, 2664 (1985)., M. M. Hurley, L. F. Pacios, P. A. Christiansen, R. B. Ross, and W. C. Ermler, J. Chem. Phys. 84, 6840 (1986)., L. A. LaJohn, P. A. Christiansen, R. B. Ross, T. Atashroo, and W. C. Ermler, J. Chem. Phys. 87, 2812 (1987)., R. B. Ross, J. M. Powers, T. Atashroo, W. C. Ermler, L. A. LaJohn, and P. A. Christiansen, J. Chem. Phys. 93, 6654 (1990). 
   Sc-Zn (ecp-10-mdf):
     M. Dolg, U. Wedig, H. Stoll, and H. Preuss, J. Chem. Phys. 86, 866 (1986). 
   Y-Cd (ecp-28-mwb), Hf-Hg (ecp-60-mwb):
     D. Andrae, U. Häußermann, M. Dolg, H. Stoll, and H. Preuß, Theor. Chim. Acta 77, 123 (1990). 
   La (ecp-46-mwb):
     M. Dolg, H. Stoll, and H. Preuss, J. Chem. Phys. 90, 1730 (1989)., M. Dolg, H. Stoll, and H. Preuss, Theor. Chim. Acta 85, 441 (1993).
   Ce-Lu (SBKJC-ecp):
     T. R. Cundari and W. J. Stevens, J. Chem. Phys. 98, 5555 (1993).
   Tl-Rn (ecp-78-mwb):
     W. Küchle, M. Dolg, H. Stoll, and H. Preuss, Mol. Phys. 74, 1245 (1991).

ECP parameters for C  [vDZP-ECP], O  [vDZP-ECP] have been obtained from:
MM, AH, SG, J. Chem. Phys. 158, 014103 (2023), 10.1063/5.0133026

----- Orbital basis set information -----
Your calculation utilizes the basis: vDZP
   Marcel Mueller, Andreas Hansen, Stefan Grimme 
   J. Chem. Phys. 158, 014103 (2023). DOI: 10.1063/5.0133026

----- AuxJ basis set information -----
Your calculation utilizes the auxiliary basis: def2/J
   F. Weigend, Phys. Chem. Chem. Phys. 8, 1057 (2006).

================================================================================
                                        WARNINGS
                       Please study these warnings very carefully!
================================================================================

WARNING: Frozen-Core approximation turned on, but there are no core electrons.
  ===> : Turning off frozen-core approximation

WARNING: Old DensityContainer found on disk!
         Will remove this file - 
         If you want to keep old densities, please start your calculation with a different basename. 


WARNING: your system is open-shell and RHF/RKS was chosen
  ===> : WILL SWITCH to UHF/UKS


================================================================================
                                       INPUT FILE
================================================================================
NAME = orca.inp
|  1>  ! DEFGRID2 
|  2>  ! wB97X-3c
|  3>  ! SP
|  4>  %pal
|  5> nprocs 4
|  6>  end
|  7>  %maxcore 8000
|  8>  *xyzfile            1             2  isomer.xyz
|  9> 
| 10>                          ****END OF INPUT****
================================================================================

                       ****************************
                       * Single Point Calculation *
                       ****************************

---------------------------------
CARTESIAN COORDINATES (ANGSTROEM)
---------------------------------
  C      0.208966   -2.118598   -0.580783
  C      0.309662   -1.071153    0.467230
  C      0.018541    1.302148   -0.182264
  O      0.648397    0.270979   -0.245144
  O     -1.042035    1.541695    0.464306
  H      1.135128   -2.214089   -1.140854
  H      0.029789   -3.060775   -0.061619
  H     -0.623420   -1.942682   -1.256672
  H      1.159201   -1.172095    1.133978
  H     -0.606806   -0.868266    1.012429
  H     -1.377663    2.449604    0.369310

----------------------------
CARTESIAN COORDINATES (A.U.)
----------------------------
  NO LB      ZA    FRAG     MASS         X           Y           Z
   0 C     4.0000*   0    12.011    0.394888   -4.003569   -1.097521
   1 C     4.0000*   0    12.011    0.585176   -2.024186    0.882936
   2 C     4.0000*   0    12.011    0.035037    2.460703   -0.344430
   3 O     6.0000*   0    15.999    1.225292    0.512076   -0.463255
   4 O     6.0000*   0    15.999   -1.969160    2.913382    0.877411
   5 H     1.0000    0     1.008    2.145082   -4.184022   -2.155901
   6 H     1.0000    0     1.008    0.056293   -5.784026   -0.116443
   7 H     1.0000    0     1.008   -1.178094   -3.671137   -2.374765
   8 H     1.0000    0     1.008    2.190573   -2.214939    2.142908
   9 H     1.0000    0     1.008   -1.146697   -1.640785    1.913213
  10 H     1.0000    0     1.008   -2.603406    4.629080    0.697895
* core charge reduced due to ECP

--------------------------------
INTERNAL COORDINATES (ANGSTROEM)
--------------------------------
 C      0   0   0     0.000000000000     0.00000000     0.00000000
 C      1   0   0     1.485129557950     0.00000000     0.00000000
 C      2   1   0     2.477731070947   118.85642532     0.00000000
 O      3   2   1     1.209951163430    30.24707146   294.86921167
 O      3   2   1     1.265011998371    98.38990456   115.05782058
 H      1   2   3     1.086542719602   111.58838836    80.93172914
 H      1   2   3     1.090565725867   106.53063094   198.61891485
 H      1   2   3     1.086571844079   112.12999592   316.64829020
 H      2   1   3     1.084647710295   114.91381525   226.61624778
 H      2   1   3     1.085503567027   115.40439443    94.38397555
 H      5   3   2     0.972609371434   114.59226435   180.07168899

---------------------------
INTERNAL COORDINATES (A.U.)
---------------------------
 C      0   0   0     0.000000000000     0.00000000     0.00000000
 C      1   0   0     2.806488137917     0.00000000     0.00000000
 C      2   1   0     4.682233157597   118.85642532     0.00000000
 O      3   2   1     2.286476334303    30.24707146   294.86921167
 O      3   2   1     2.390526233045    98.38990456   115.05782058
 H      1   2   3     2.053268172854   111.58838836    80.93172914
 H      1   2   3     2.060870552929   106.53063094   198.61891485
 H      1   2   3     2.053323210140   112.12999592   316.64829020
 H      2   1   3     2.049687124243   114.91381525   226.61624778
 H      2   1   3     2.051304459075   115.40439443    94.38397555
 H      5   3   2     1.837965347296   114.59226435   180.07168899

---------------------
BASIS SET INFORMATION
---------------------
There are 3 groups of distinct atoms

 Group   1 Type C   : 6s6p2d contracted to 2s2p1d pattern {42/42/2}
 Group   2 Type O   : 6s6p2d contracted to 2s2p1d pattern {42/42/2}
 Group   3 Type H   : 8s2p contracted to 2s1p pattern {53/2}

Atom   0C    basis set group =>   1
Atom   1C    basis set group =>   1
Atom   2C    basis set group =>   1
Atom   3O    basis set group =>   2
Atom   4O    basis set group =>   2
Atom   5H    basis set group =>   3
Atom   6H    basis set group =>   3
Atom   7H    basis set group =>   3
Atom   8H    basis set group =>   3
Atom   9H    basis set group =>   3
Atom  10H    basis set group =>   3
---------------------------------
AUXILIARY/J BASIS SET INFORMATION
---------------------------------
There are 3 groups of distinct atoms

 Group   1 Type C   : 12s5p4d2f1g contracted to 6s4p3d1f1g pattern {711111/2111/211/2/1}
 Group   2 Type O   : 12s5p4d2f1g contracted to 6s4p3d1f1g pattern {711111/2111/211/2/1}
 Group   3 Type H   : 5s2p1d contracted to 3s1p1d pattern {311/2/1}

Atom   0C    basis set group =>   1
Atom   1C    basis set group =>   1
Atom   2C    basis set group =>   1
Atom   3O    basis set group =>   2
Atom   4O    basis set group =>   2
Atom   5H    basis set group =>   3
Atom   6H    basis set group =>   3
Atom   7H    basis set group =>   3
Atom   8H    basis set group =>   3
Atom   9H    basis set group =>   3
Atom  10H    basis set group =>   3
-------------------------
ECP PARAMETER INFORMATION
-------------------------

 Group 1, Type C  ECP vDZP-ECP (replacing 2 core electrons, lmax=3)
 Group 2, Type O  ECP vDZP-ECP (replacing 2 core electrons, lmax=3)

Atom   0C    ECP group =>   1
Atom   1C    ECP group =>   1
Atom   2C    ECP group =>   1
Atom   3O    ECP group =>   2
Atom   4O    ECP group =>   2



           ************************************************************
           *        Program running with 4 parallel MPI-processes     *
           *              working on a common directory               *
           ************************************************************
------------------------------------------------------------------------------
                             ORCA STARTUP CALCULATIONS
                           -- RI-GTO INTEGRALS CHOSEN --
------------------------------------------------------------------------------
------------------------------------------------------------------------------
                   ___                                                        
                  /   \      - P O W E R E D   B Y -                         
                 /     \                                                     
                 |  |  |   _    _      __       _____    __    __             
                 |  |  |  | |  | |    /  \     |  _  \  |  |  /  |          
                  \  \/   | |  | |   /    \    | | | |  |  | /  /          
                 / \  \   | |__| |  /  /\  \   | |_| |  |  |/  /          
                |  |  |   |  __  | /  /__\  \  |    /   |      \           
                |  |  |   | |  | | |   __   |  |    \   |  |\   \          
                \     /   | |  | | |  |  |  |  | |\  \  |  | \   \       
                 \___/    |_|  |_| |__|  |__|  |_| \__\ |__|  \__/        
                                                                              
                      - O R C A' S   B I G   F R I E N D -                    
                                      &                                       
                       - I N T E G R A L  F E E D E R -                       
                                                                              
 v1 FN, 2020, v2 2021, v3 2022-2024                                           
------------------------------------------------------------------------------


----------------------
SHARK INTEGRAL PACKAGE
----------------------

Number of atoms                             ...     11
Number of basis functions                   ...     95
Number of shells                            ...     43
Maximum angular momentum                    ...      2
Integral batch strategy                     ... SHARK/LIBINT Hybrid
RI-J (if used) integral strategy            ... SPLIT-RIJ (Revised 2003 algorithm where possible)
Printlevel                                  ...      1
Contraction scheme used                     ... SEGMENTED contraction
Prescreening option                         ... SCHWARTZ
   Thresh                                   ... 1.000e-10
   Tcut                                     ... 1.000e-11
   Tpresel                                  ... 1.000e-11 
Coulomb Range Separation                    ... NOT USED
Exchange Range Separation                   ... Long Range
   Mu parameter                             ... 3.000e-01
   Scaling (regular/separated)              ... 1.670e-01 8.330e-01
Multipole approximations                    ... NOT USED
Finite Nucleus Model                        ... NOT USED
CABS basis                                  ... NOT available
Auxiliary Coulomb fitting basis             ... AVAILABLE
   # of basis functions in Aux-J            ...    311
   # of shells in Aux-J                     ...    105
   Maximum angular momentum in Aux-J        ...      4
Auxiliary J/K fitting basis                 ... NOT available
Auxiliary Correlation fitting basis         ... NOT available
Auxiliary 'external' fitting basis          ... NOT available

Checking pre-screening integrals            ... done (  0.0 sec) Dimension = 43
Check shell pair data                       ... done (  0.0 sec)
Shell pair information
Shell pair cut-off parameter TPreSel        ...   1.0e-11
Total number of shell pairs                 ...       946
Shell pairs after pre-screening             ...       946
Total number of primitive shell pairs       ...      8674
Primitive shell pairs kept                  ...      7706
          la=0 lb=0:    253 shell pairs
          la=1 lb=0:    352 shell pairs
          la=1 lb=1:    136 shell pairs
          la=2 lb=0:    110 shell pairs
          la=2 lb=1:     80 shell pairs
          la=2 lb=2:     15 shell pairs

Calculating one electron integrals          ... done (  0.0 sec)
Calculating ECP integrals                   ... done (  0.0 sec)
Calculating RI/J V-Matrix + Cholesky decomp.... done (  0.0 sec)
Calculating Nuclear repulsion               ... done (  0.0 sec) ENN=     99.319189285286 Eh

Diagonalization of the overlap matrix:
Smallest eigenvalue                        ... 2.537e-03
Time for diagonalization                   ...    0.002 sec
Threshold for overlap eigenvalues          ... 1.000e-07
Number of eigenvalues below threshold      ... 0
Time for construction of square roots      ...    0.000 sec
Total time needed                          ...    0.003 sec

-------------------
DFT GRID GENERATION
-------------------

General Integration Accuracy     IntAcc      ... 4.388
Radial Grid Type                 RadialGrid  ... OptM3 with GC (2021)
Angular Grid (max. ang.)         AngularGrid ... 4 (Lebedev-302)
Angular grid pruning method      GridPruning ... 4 (adaptive)
Weight generation scheme         WeightScheme... mBecke (2022)
Basis function cutoff            BFCut       ... 1.0000e-10
Integration weight cutoff        WCut        ... 1.0000e-14
Partially contracted basis set               ... off
Rotationally invariant grid construction     ... off
Angular grids for H and He will be reduced by one unit

Total number of grid points                  ...    49869
Total number of batches                      ...      785
Average number of points per batch           ...       63
Average number of grid points per atom       ...     4534

--------------------
COSX GRID GENERATION
--------------------

GRIDX 1
-------
General Integration Accuracy     IntAcc      ... 3.816
Radial Grid Type                 RadialGrid  ... OptM3 with GC (2021)
Angular Grid (max. ang.)         AngularGrid ... 1 (Lebedev-50)
Angular grid pruning method      GridPruning ... 4 (adaptive)
Weight generation scheme         WeightScheme... mBecke (2022)
Basis function cutoff            BFCut       ... 1.0000e-10
Integration weight cutoff        WCut        ... 1.0000e-14
Partially contracted basis set               ... on
Rotationally invariant grid construction     ... off
Angular grids for H and He will be reduced by one unit

Total number of grid points                  ...     6401
Total number of batches                      ...       58
Average number of points per batch           ...      110
Average number of grid points per atom       ...      582
UseSFitting                                  ... on

GRIDX 2
-------
General Integration Accuracy     IntAcc      ... 4.020
Radial Grid Type                 RadialGrid  ... OptM3 with GC (2021)
Angular Grid (max. ang.)         AngularGrid ... 2 (Lebedev-110)
Angular grid pruning method      GridPruning ... 4 (adaptive)
Weight generation scheme         WeightScheme... mBecke (2022)
Basis function cutoff            BFCut       ... 1.0000e-10
Integration weight cutoff        WCut        ... 1.0000e-14
Partially contracted basis set               ... on
Rotationally invariant grid construction     ... off
Angular grids for H and He will be reduced by one unit

Total number of grid points                  ...    13871
Total number of batches                      ...      115
Average number of points per batch           ...      120
Average number of grid points per atom       ...     1261
UseSFitting                                  ... on

GRIDX 3
-------
General Integration Accuracy     IntAcc      ... 4.338
Radial Grid Type                 RadialGrid  ... OptM3 with GC (2021)
Angular Grid (max. ang.)         AngularGrid ... 3 (Lebedev-194)
Angular grid pruning method      GridPruning ... 4 (adaptive)
Weight generation scheme         WeightScheme... mBecke (2022)
Basis function cutoff            BFCut       ... 1.0000e-10
Integration weight cutoff        WCut        ... 1.0000e-14
Partially contracted basis set               ... on
Rotationally invariant grid construction     ... off
Angular grids for H and He will be reduced by one unit

Total number of grid points                  ...    30513
Total number of batches                      ...      244
Average number of points per batch           ...      125
Average number of grid points per atom       ...     2774
UseSFitting                                  ... on
Initializing property integral containers    ... done (  0.0 sec)

SHARK setup successfully completed in   0.7 seconds

Maximum memory used throughout the entire STARTUP-calculation: 16.1 MB


           ************************************************************
           *        Program running with 4 parallel MPI-processes     *
           *              working on a common directory               *
           ************************************************************
-------------------------------------------------------------------------------
                                 ORCA GUESS
                   Start orbitals & Density for SCF / CASSCF
-------------------------------------------------------------------------------

------------
SCF SETTINGS
------------
Hamiltonian:
 Density Functional     Method          .... DFT(GTOs)
 Exchange Functional    Exchange        .... WB97X-V
 Correlation Functional Correlation     .... WB97X-V
 Gradients option       PostSCFGGA      .... off
 Hybrid DFT is turned on
   Fraction HF Exchange ScalHFX         ....  0.167000
   Scaling of DF-GGA-X  ScalDFX         ....  0.000000
   Scaling of DF-GGA-C  ScalDFC         ....  1.000000
   Scaling of DF-LDA-C  ScalLDAC        ....  1.000000
   Perturbative correction              ....  0.000000
 Long-range corrected/Screened/Range-Separated Hybrid DFT is turned on
   Amount of maximum screened exact exchange              ....  0.833000
   Range separation parameter mu (erf(mu*r12)/r12)        ....  0.300000
   NL short-range parameter             ....  6.000000
   NL long-range parameter              ....  0.010000
 RI-approximation to the Coulomb term is turned on
   Number of AuxJ basis functions       .... 311
   RIJ-COSX (HFX calculated with COS-X)).... on


General Settings:
 Integral files         IntName         .... orca
 Hartree-Fock type      HFTyp           .... UHF
 Total Charge           Charge          ....    1
 Multiplicity           Mult            ....    2
 Number of Electrons    NEL             ....   29
 Basis Dimension        Dim             ....   95
 Nuclear Repulsion      ENuc            ....     99.3191892853 Eh

Convergence Acceleration:
 AO-DIIS                CNVDIIS         .... on
   Start iteration      DIISMaxIt       ....    12
   Startup error        DIISStart       ....  0.200000
   # of expansion vecs  DIISMaxEq       ....     5
   Bias factor          DIISBfac        ....   1.050
   Max. coefficient     DIISMaxC        ....  10.000
 MO-DIIS                CNVKDIIS        .... off
 Trust-Rad. Augm. Hess. CNVTRAH         .... auto
   Auto Start mean grad. ratio tolernc. ....  1.125000
   Auto Start start iteration           ....    50
   Auto Start num. interpolation iter.  ....    10
   Max. Number of Micro iterations      ....    24
   Max. Number of Macro iterations      .... Maxiter - #DIIS iter
   Number of Davidson start vectors     ....     2
   Converg. threshold    (grad. norm)   ....   5.000e-05
   Grad. Scal. Fac. for Micro threshold ....   0.100
   Minimum threshold for Micro iter.    ....   1.000e-02
   NR start threshold (gradient norm)   ....   1.000e-04
   Initial trust radius                 ....   0.400
   Minimum AH scaling param. (alpha)    ....   1.000
   Maximum AH scaling param. (alpha)    .... 1000.000
   Quad. conv. algorithm                .... NR
   White noise on init. David. guess    .... on
   Maximum white noise                  ....   0.010
   Pseudo random numbers                .... off
   Inactive MOs                         .... canonical
   Orbital update algorithm             .... Taylor
   Preconditioner                       .... Diag
   Full preconditioner red. dimension   ....   250
 SOSCF                  CNVSOSCF        .... on
   Start iteration      SOSCFMaxIt      ....   150
   Startup grad/error   SOSCFStart      ....  0.003300
   Hessian update       SOSCFHessUp     .... L-BFGS
 Level Shifting         CNVShift        .... on
   Level shift para.    LevelShift      ....    0.2500
   Turn off err/grad.   ShiftErr        ....    0.0010
 Zerner damping         CNVZerner       .... off
 Static damping         CNVDamp         .... on
   Fraction old density DampFac         ....    0.7000
   Max. Damping (<1)    DampMax         ....    0.9800
   Min. Damping (>=0)   DampMin         ....    0.0000
   Turn off err/grad.   DampErr         ....    0.1000

SCF Procedure:
 Maximum # iterations   MaxIter         ....   125
 SCF integral mode      SCFMode         .... Direct
   Integral package                     .... SHARK and LIBINT hybrid scheme
 Reset frequency        DirectResetFreq ....    20
 Integral Threshold     Thresh          ....  1.000e-10 Eh
 Primitive CutOff       TCut            ....  1.000e-11 Eh

Convergence Tolerance:
 Convergence Check Mode ConvCheckMode   .... Total+1el-Energy
 Convergence forced     ConvForced      .... 0
 Energy Change          TolE            ....  1.000e-06 Eh
 1-El. energy change                    ....  1.000e-03 Eh
 Orbital Gradient       TolG            ....  5.000e-05
 Orbital Rotation angle TolX            ....  5.000e-05
 DIIS Error             TolErr          ....  1.000e-06

------------------------------
INITIAL GUESS: MODEL POTENTIAL
------------------------------
Loading Hartree-Fock densities                     ... done
Atomic calculation to generate a density for atom 0 (C  with ECP)
  Multiplicity assumed   :    1
  Atomic configuration   : 1s2 2s2 2p2 
  Number of open shells  : 1
  Command: /home/alejandro/orca_6_0_1/orca orca_atom6.inp "" > orca_atom6.out
Returned from the atomic calculation with res=0
Atomic calculation to generate a density for atom 3 (O  with ECP)
  Multiplicity assumed   :    3
  Atomic configuration   : 1s2 2s2 2p4 
  Number of open shells  : 1
  Command: /home/alejandro/orca_6_0_1/orca orca_atom8.inp "" > orca_atom8.out
Returned from the atomic calculation with res=0
Calculating cut-offs                               ... done
Initializing the effective Hamiltonian             ... done
Setting up the integral package (SHARK)            ... done
Starting the Coulomb interaction                   ... done (   0.0 sec)
Making the grid                                    ... done (   0.1 sec)
Mapping shells                                     ... done
Starting the XC term evaluation                    ... done (   0.0 sec)
  promolecular density results
     # of electrons  =     39.996608547
     EX              =    -22.678995705
     EC              =     -1.654128504
     EX+EC           =    -24.333124209
Transforming the Hamiltonian                       ... done (   0.0 sec)
Diagonalizing the Hamiltonian                      ... done (   0.0 sec)
Back transforming the eigenvectors                 ... done (   0.0 sec)
Now organizing SCF variables                       ... done
                      ------------------
                      INITIAL GUESS DONE (   0.9 sec)
                      ------------------
             **** ENERGY FILE WAS UPDATED (orca.en.tmp) ****
Finished Guess after   1.3 sec
Maximum memory used throughout the entire GUESS-calculation: 9.5 MB


           ************************************************************
           *        Program running with 4 parallel MPI-processes     *
           *              working on a common directory               *
           ************************************************************

-------------------------------------------------------------------------------------------
                                      ORCA LEAN-SCF
                              memory conserving SCF solver
-------------------------------------------------------------------------------------------

----------------------------------------D-I-I-S--------------------------------------------
Iteration    Energy (Eh)           Delta-E    RMSDP     MaxDP     DIISErr   Damp  Time(sec)
-------------------------------------------------------------------------------------------
               ***  Starting incremental Fock matrix formation  ***
    1    -52.3091658451571675     0.00e+00  1.95e-03  3.41e-02  8.35e-02  0.700   2.0
    2    -52.3623241900713197    -5.32e-02  1.42e-03  2.46e-02  4.97e-02  0.700   1.0
                               ***Turning on AO-DIIS***
    3    -52.3895246924657272    -2.72e-02  8.20e-04  1.12e-02  2.49e-02  0.700   1.0
    4    -52.4062461967716615    -1.67e-02  1.98e-03  3.05e-02  1.46e-02  0.000   1.0
                              *** Initializing SOSCF ***
---------------------------------------S-O-S-C-F--------------------------------------
Iteration    Energy (Eh)           Delta-E    RMSDP     MaxDP     MaxGrad    Time(sec)
--------------------------------------------------------------------------------------
    5    -52.4437864928132456    -3.75e-02  3.00e-04  5.24e-03  2.70e-03     1.0
               *** Restarting incremental Fock matrix formation ***
    6    -52.4441979469673640    -4.11e-04  2.40e-04  5.39e-03  4.02e-03     1.9
    7    -52.4443564399057607    -1.58e-04  2.29e-04  4.79e-03  2.32e-03     1.7
    8    -52.4444123621767062    -5.59e-05  5.98e-05  1.65e-03  5.75e-04     1.7
    9    -52.4444200155109002    -7.65e-06  2.54e-05  5.37e-04  2.26e-04     1.6
   10    -52.4444207517353789    -7.36e-07  1.02e-05  2.34e-04  2.06e-04     1.5
                 **** Energy Check signals convergence ****

               *****************************************************
               *                     SUCCESS                       *
               *           SCF CONVERGED AFTER  10 CYCLES          *
               *****************************************************

Recomputing exchange energy using gridx3       ... done (    3.444 sec)
Old exchange energy                            :     -5.895240160 Eh
New exchange energy                            :     -5.895216998 Eh
Exchange energy change after final integration :      0.000023161 Eh
Total energy after final integration           :    -52.444397591 Eh
             **** ENERGY FILE WAS UPDATED (orca.en.tmp) ****

----------------
TOTAL SCF ENERGY
----------------

Total Energy       :        -52.44439759058722 Eh           -1427.08461 eV

Components:
Nuclear Repulsion  :         99.31918928528648 Eh            2702.61254 eV
Electronic Energy  :       -151.76361003702186 Eh           -4129.69778 eV
One Electron Energy:       -271.71014344869184 Eh           -7393.60889 eV
Two Electron Energy:        119.94653341166996 Eh            3263.91111 eV

Virial components:
Potential Energy   :        -93.56174704734534 Eh           -2545.94457 eV
Kinetic Energy     :         41.11734945675811 Eh            1118.85996 eV
Virial Ratio       :          2.27548098998311

DFT components:
N(Alpha)           :       14.999995605269 electrons
N(Beta)            :       13.999993635418 electrons
N(Total)           :       28.999989240687 electrons
E(X)               :       -7.185104292171 Eh       
E(C)               :       -1.114498512765 Eh       
E(XC)              :       -8.299602804937 Eh       

---------------
SCF CONVERGENCE
---------------

  Last Energy change         ...    7.3622e-07  Tolerance :   1.0000e-06
  Last MAX-Density change    ...    2.3365e-04  Tolerance :   1.0000e-05
  Last RMS-Density change    ...    1.0246e-05  Tolerance :   1.0000e-06
  Last DIIS Error            ...    2.7020e-03  Tolerance :   1.0000e-06
  Last Orbital Gradient      ...    2.0577e-04  Tolerance :   5.0000e-05
  Last Orbital Rotation      ...    3.0306e-04  Tolerance :   5.0000e-05


----------------------
UHF SPIN CONTAMINATION
----------------------

Warning: in a DFT calculation there is little theoretical justification to 
         calculate <S**2> as in Hartree-Fock theory. We will do it anyways
         but you should keep in mind that the values have only limited relevance

Expectation value of <S**2>     :     0.753649
Ideal value S*(S+1) for S=0.5   :     0.750000
Deviation                       :     0.003649

----------------
ORBITAL ENERGIES
----------------
                 SPIN UP ORBITALS
  NO   OCC          E(Eh)            E(eV) 
   0   1.0000      -1.546775       -42.0899 
   1   1.0000      -1.471892       -40.0522 
   2   1.0000      -1.146326       -31.1931 
   3   1.0000      -1.046397       -28.4739 
   4   1.0000      -0.997237       -27.1362 
   5   1.0000      -0.899546       -24.4779 
   6   1.0000      -0.892590       -24.2886 
   7   1.0000      -0.865555       -23.5529 
   8   1.0000      -0.803338       -21.8599 
   9   1.0000      -0.766539       -20.8586 
  10   1.0000      -0.739327       -20.1181 
  11   1.0000      -0.689415       -18.7599 
  12   1.0000      -0.688811       -18.7435 
  13   1.0000      -0.655899       -17.8479 
  14   1.0000      -0.618185       -16.8217 
  15   0.0000      -0.167710        -4.5636 
  16   0.0000      -0.111746        -3.0408 
  17   0.0000      -0.058642        -1.5957 
  18   0.0000      -0.051025        -1.3885 
  19   0.0000      -0.024063        -0.6548 
  20   0.0000      -0.020168        -0.5488 
  21   0.0000       0.010952         0.2980 
  22   0.0000       0.029212         0.7949 
  23   0.0000       0.097924         2.6647 
  24   0.0000       0.106157         2.8887 
  25   0.0000       0.140139         3.8134 

                 SPIN DOWN ORBITALS
  NO   OCC          E(Eh)            E(eV) 
   0   1.0000      -1.535706       -41.7887 
   1   1.0000      -1.462876       -39.8069 
   2   1.0000      -1.138986       -30.9934 
   3   1.0000      -1.037152       -28.2224 
   4   1.0000      -0.988800       -26.9066 
   5   1.0000      -0.893180       -24.3047 
   6   1.0000      -0.862755       -23.4768 
   7   1.0000      -0.844631       -22.9836 
   8   1.0000      -0.794017       -21.6063 
   9   1.0000      -0.756598       -20.5881 
  10   1.0000      -0.735874       -20.0242 
  11   1.0000      -0.687536       -18.7088 
  12   1.0000      -0.681926       -18.5562 
  13   1.0000      -0.654847       -17.8193 
  14   0.0000      -0.269121        -7.3231 
  15   0.0000      -0.140361        -3.8194 
  16   0.0000      -0.108054        -2.9403 
  17   0.0000      -0.054378        -1.4797 
  18   0.0000      -0.039896        -1.0856 
  19   0.0000      -0.022344        -0.6080 
  20   0.0000      -0.019230        -0.5233 
  21   0.0000       0.011356         0.3090 
  22   0.0000       0.029525         0.8034 
  23   0.0000       0.103948         2.8286 
  24   0.0000       0.118877         3.2348 
*Only the first 10 virtual orbitals were printed.

                    ********************************
                    * MULLIKEN POPULATION ANALYSIS *
                    ********************************

--------------------------------------------
MULLIKEN ATOMIC CHARGES AND SPIN POPULATIONS
--------------------------------------------
   0 C :   -0.016793   -0.001271
   1 C :    0.106666    0.071155
   2 C :    0.229176    0.859411
   3 O :   -0.039784   -0.001600
   4 O :    0.050825    0.072841
   5 H :    0.079637    0.001112
   6 H :    0.087274    0.005486
   7 H :    0.066022    0.000323
   8 H :    0.103658   -0.001167
   9 H :    0.096161    0.000722
  10 H :    0.237157   -0.007011
Sum of atomic charges         :    1.0000000
Sum of atomic spin populations:    1.0000000

-----------------------------------------------------
MULLIKEN REDUCED ORBITAL CHARGES AND SPIN POPULATIONS
-----------------------------------------------------
CHARGE
  0 C s       :     0.934445  s :     0.934445
      pz      :     0.981001  p :     3.017034
      px      :     1.078255
      py      :     0.957777
      dz2     :     0.004141  d :     0.065314
      dxz     :     0.021395
      dyz     :     0.019729
      dx2y2   :     0.014773
      dxy     :     0.005276

  1 C s       :     1.090996  s :     1.090996
      pz      :     0.943064  p :     2.680715
      px      :     1.087693
      py      :     0.649958
      dz2     :     0.016833  d :     0.121623
      dxz     :     0.031136
      dyz     :     0.025961
      dx2y2   :     0.029973
      dxy     :     0.017720

  2 C s       :     1.372761  s :     1.372761
      pz      :     0.641143  p :     2.171682
      px      :     0.688185
      py      :     0.842354
      dz2     :     0.029488  d :     0.226381
      dxz     :     0.037172
      dyz     :     0.043574
      dx2y2   :     0.067079
      dxy     :     0.049068

  3 O s       :     1.631490  s :     1.631490
      pz      :     1.597901  p :     4.362218
      px      :     1.571317
      py      :     1.193000
      dz2     :     0.004533  d :     0.046076
      dxz     :     0.005844
      dyz     :     0.011346
      dx2y2   :     0.011505
      dxy     :     0.012849

  4 O s       :     1.536398  s :     1.536398
      pz      :     1.582244  p :     4.376181
      px      :     1.348154
      py      :     1.445782
      dz2     :     0.007465  d :     0.036596
      dxz     :     0.008901
      dyz     :     0.003400
      dx2y2   :     0.011128
      dxy     :     0.005702

  5 H s       :     0.874982  s :     0.874982
      pz      :     0.014563  p :     0.045381
      px      :     0.020823
      py      :     0.009995

  6 H s       :     0.865602  s :     0.865602
      pz      :     0.013172  p :     0.047125
      px      :     0.010973
      py      :     0.022980

  7 H s       :     0.888322  s :     0.888322
      pz      :     0.016591  p :     0.045655
      px      :     0.018787
      py      :     0.010277

  8 H s       :     0.854279  s :     0.854279
      pz      :     0.015350  p :     0.042063
      px      :     0.020864
      py      :     0.005849

  9 H s       :     0.859369  s :     0.859369
      pz      :     0.013838  p :     0.044469
      px      :     0.023328
      py      :     0.007303

 10 H s       :     0.664958  s :     0.664958
      pz      :     0.025777  p :     0.097885
      px      :     0.027010
      py      :     0.045098


SPIN
  0 C s       :    -0.000990  s :    -0.000990
      pz      :    -0.001741  p :    -0.001200
      px      :    -0.000423
      py      :     0.000965
      dz2     :     0.000404  d :     0.000919
      dxz     :     0.000019
      dyz     :     0.000034
      dx2y2   :     0.000414
      dxy     :     0.000048

  1 C s       :     0.004298  s :     0.004298
      pz      :     0.018601  p :     0.066889
      px      :     0.004851
      py      :     0.043437
      dz2     :     0.000082  d :    -0.000032
      dxz     :    -0.000149
      dyz     :    -0.000161
      dx2y2   :     0.000296
      dxy     :    -0.000099

  2 C s       :     0.357821  s :     0.357821
      pz      :     0.150953  p :     0.493697
      px      :     0.072642
      py      :     0.270102
      dz2     :     0.000088  d :     0.007894
      dxz     :     0.001362
      dyz     :     0.000437
      dx2y2   :     0.000269
      dxy     :     0.005738

  3 O s       :    -0.000265  s :    -0.000265
      pz      :    -0.000912  p :    -0.006144
      px      :     0.005511
      py      :    -0.010743
      dz2     :     0.000019  d :     0.004809
      dxz     :    -0.000074
      dyz     :     0.002147
      dx2y2   :     0.002127
      dxy     :     0.000591

  4 O s       :    -0.008479  s :    -0.008479
      pz      :     0.029486  p :     0.080077
      px      :     0.031039
      py      :     0.019552
      dz2     :     0.000432  d :     0.001242
      dxz     :    -0.000502
      dyz     :    -0.000016
      dx2y2   :     0.000406
      dxy     :     0.000922

  5 H s       :     0.001100  s :     0.001100
      pz      :    -0.000018  p :     0.000011
      px      :    -0.000004
      py      :     0.000033

  6 H s       :     0.005524  s :     0.005524
      pz      :     0.000062  p :    -0.000038
      px      :     0.000011
      py      :    -0.000111

  7 H s       :     0.000340  s :     0.000340
      pz      :    -0.000006  p :    -0.000017
      px      :     0.000010
      py      :    -0.000021

  8 H s       :    -0.001655  s :    -0.001655
      pz      :     0.000078  p :     0.000487
      px      :     0.000129
      py      :     0.000281

  9 H s       :    -0.000105  s :    -0.000105
      pz      :     0.000029  p :     0.000827
      px      :     0.000016
      py      :     0.000783

 10 H s       :    -0.005539  s :    -0.005539
      pz      :    -0.000524  p :    -0.001473
      px      :    -0.000731
      py      :    -0.000218



                     *******************************
                     * LOEWDIN POPULATION ANALYSIS *
                     *******************************

-------------------------------------------
LOEWDIN ATOMIC CHARGES AND SPIN POPULATIONS
-------------------------------------------
   0 C :   -0.071221    0.003377
   1 C :    0.086269    0.056939
   2 C :    0.186592    0.711681
   3 O :    0.114734    0.078979
   4 O :    0.158286    0.130396
   5 H :    0.072899    0.000583
   6 H :    0.086940    0.004102
   7 H :    0.066364    0.000323
   8 H :    0.085242    0.001788
   9 H :    0.070200    0.004509
  10 H :    0.143696    0.007322

----------------------------------------------------
LOEWDIN REDUCED ORBITAL CHARGES AND SPIN POPULATIONS
----------------------------------------------------
CHARGE
  0 C s       :     0.765016  s :     0.765016
      pz      :     1.008853  p :     3.079966
      px      :     1.079144
      py      :     0.991969
      dz2     :     0.016638  d :     0.226238
      dxz     :     0.076932
      dyz     :     0.061465
      dx2y2   :     0.051983
      dxy     :     0.019220

  1 C s       :     0.805034  s :     0.805034
      pz      :     0.962010  p :     2.752049
      px      :     1.098827
      py      :     0.691212
      dz2     :     0.044689  d :     0.356648
      dxz     :     0.096882
      dyz     :     0.077998
      dx2y2   :     0.086105
      dxy     :     0.050975

  2 C s       :     0.866601  s :     0.866601
      pz      :     0.702018  p :     2.361593
      px      :     0.772332
      py      :     0.887242
      dz2     :     0.075349  d :     0.585215
      dxz     :     0.110454
      dyz     :     0.095236
      dx2y2   :     0.162993
      dxy     :     0.141181

  3 O s       :     1.368125  s :     1.368125
      pz      :     1.509406  p :     4.406329
      px      :     1.552981
      py      :     1.343942
      dz2     :     0.012804  d :     0.110812
      dxz     :     0.009087
      dyz     :     0.025054
      dx2y2   :     0.031720
      dxy     :     0.032146

  4 O s       :     1.319053  s :     1.319053
      pz      :     1.548736  p :     4.433361
      px      :     1.422832
      py      :     1.461794
      dz2     :     0.013061  d :     0.089300
      dxz     :     0.024333
      dyz     :     0.006034
      dx2y2   :     0.028565
      dxy     :     0.017306

  5 H s       :     0.778087  s :     0.778087
      pz      :     0.047081  p :     0.149015
      px      :     0.061717
      py      :     0.040216

  6 H s       :     0.762379  s :     0.762379
      pz      :     0.045348  p :     0.150681
      px      :     0.043580
      py      :     0.061753

  7 H s       :     0.784101  s :     0.784101
      pz      :     0.050925  p :     0.149535
      px      :     0.058322
      py      :     0.040288

  8 H s       :     0.773799  s :     0.773799
      pz      :     0.051168  p :     0.140960
      px      :     0.062360
      py      :     0.027433

  9 H s       :     0.786131  s :     0.786131
      pz      :     0.047922  p :     0.143669
      px      :     0.067552
      py      :     0.028195

 10 H s       :     0.573104  s :     0.573104
      pz      :     0.075114  p :     0.283199
      px      :     0.068429
      py      :     0.139656


SPIN
  0 C s       :    -0.000242  s :    -0.000242
      pz      :    -0.000743  p :     0.000180
      px      :    -0.000145
      py      :     0.001069
      dz2     :     0.001406  d :     0.003439
      dxz     :     0.000044
      dyz     :     0.000148
      dx2y2   :     0.001634
      dxy     :     0.000206

  1 C s       :     0.001848  s :     0.001848
      pz      :     0.016055  p :     0.056956
      px      :     0.003951
      py      :     0.036951
      dz2     :    -0.000038  d :    -0.001865
      dxz     :    -0.000265
      dyz     :    -0.000782
      dx2y2   :    -0.000409
      dxy     :    -0.000372

  2 C s       :     0.176502  s :     0.176502
      pz      :     0.146475  p :     0.487561
      px      :     0.068816
      py      :     0.272271
      dz2     :     0.003268  d :     0.047618
      dxz     :     0.003424
      dyz     :     0.008554
      dx2y2   :     0.002402
      dxy     :     0.029970

  3 O s       :     0.014321  s :     0.014321
      pz      :     0.002312  p :     0.041360
      px      :     0.009143
      py      :     0.029905
      dz2     :     0.001359  d :     0.023298
      dxz     :     0.001113
      dyz     :     0.006211
      dx2y2   :     0.013733
      dxy     :     0.000882

  4 O s       :     0.009091  s :     0.009091
      pz      :     0.037552  p :     0.105616
      px      :     0.045802
      py      :     0.022262
      dz2     :     0.001810  d :     0.015689
      dxz     :     0.003095
      dyz     :     0.001000
      dx2y2   :     0.003232
      dxy     :     0.006552

  5 H s       :     0.000495  s :     0.000495
      pz      :     0.000030  p :     0.000088
      px      :    -0.000011
      py      :     0.000068

  6 H s       :     0.004049  s :     0.004049
      pz      :     0.000051  p :     0.000053
      px      :    -0.000006
      py      :     0.000007

  7 H s       :     0.000352  s :     0.000352
      pz      :    -0.000022  p :    -0.000029
      px      :     0.000004
      py      :    -0.000010

  8 H s       :    -0.001211  s :    -0.001211
      pz      :     0.000904  p :     0.002998
      px      :     0.000370
      py      :     0.001725

  9 H s       :     0.000867  s :     0.000867
      pz      :     0.000622  p :     0.003642
      px      :     0.000136
      py      :     0.002884

 10 H s       :     0.007897  s :     0.007897
      pz      :    -0.000672  p :    -0.000574
      px      :    -0.000893
      py      :     0.000991



                      *****************************
                      * MAYER POPULATION ANALYSIS *
                      *****************************

  NA   - Mulliken gross atomic population
  ZA   - Total nuclear charge
  QA   - Mulliken gross atomic charge
  VA   - Mayer's total valence
  BVA  - Mayer's bonded valence
  FA   - Mayer's free valence

  ATOM       NA         ZA         QA         VA         BVA        FA
  0 C      4.0168     4.0000    -0.0168     3.9337     3.9336     0.0000
  1 C      3.8933     4.0000     0.1067     3.7819     3.7772     0.0047
  2 C      3.7708     4.0000     0.2292     3.7616     3.0651     0.6965
  3 O      6.0398     6.0000    -0.0398     2.3573     2.3498     0.0075
  4 O      5.9492     6.0000     0.0508     2.4451     2.4347     0.0104
  5 H      0.9204     1.0000     0.0796     1.0361     1.0361     0.0000
  6 H      0.9127     1.0000     0.0873     1.0502     1.0501     0.0000
  7 H      0.9340     1.0000     0.0660     1.0413     1.0413     0.0000
  8 H      0.8963     1.0000     0.1037     1.0207     1.0207     0.0000
  9 H      0.9038     1.0000     0.0962     1.0107     1.0107     0.0000
 10 H      0.7628     1.0000     0.2372     1.0278     1.0278    -0.0000

  Mayer bond orders larger than 0.100000
B(  0-C ,  1-C ) :   1.0207 B(  0-C ,  5-H ) :   0.9765 B(  0-C ,  6-H ) :   0.9576 
B(  0-C ,  7-H ) :   0.9795 B(  1-C ,  3-O ) :   0.6428 B(  1-C ,  8-H ) :   0.9906 
B(  1-C ,  9-H ) :   0.9928 B(  2-C ,  3-O ) :   1.6243 B(  2-C ,  4-O ) :   1.3504 
B(  4-O , 10-H ) :   0.9869 

-------
TIMINGS
-------

Total SCF time: 0 days 0 hours 0 min 18 sec 

Total time                  ....      18.143 sec
Sum of individual times     ....      18.130 sec  ( 99.9%)

SCF preparation             ....       0.369 sec  (  2.0%)
Fock matrix formation       ....      17.607 sec  ( 97.0%)
  Startup                   ....       0.009 sec  (  0.0% of F)
  Split-RI-J                ....       0.690 sec  (  3.9% of F)
  Chain of spheres X        ....      15.173 sec  ( 86.2% of F)
  XC integration            ....       1.705 sec  (  9.7% of F)
    XC Preparation          ....       0.000 sec  (  0.0% of XC)
    Basis function eval.    ....       0.457 sec  ( 26.8% of XC)
    Density eval.           ....       0.376 sec  ( 22.1% of XC)
    XC-Functional eval.     ....       0.251 sec  ( 14.7% of XC)
    XC-Potential eval.      ....       0.526 sec  ( 30.8% of XC)
Diagonalization             ....       0.000 sec  (  0.0%)
Density matrix formation    ....       0.015 sec  (  0.1%)
Total Energy calculation    ....       0.013 sec  (  0.1%)
Population analysis         ....       0.011 sec  (  0.1%)
Orbital Transformation      ....       0.016 sec  (  0.1%)
Orbital Orthonormalization  ....       0.000 sec  (  0.0%)
DIIS solution               ....       0.064 sec  (  0.4%)
SOSCF solution              ....       0.034 sec  (  0.2%)
Finished LeanSCF after  18.1 sec

Maximum memory used throughout the entire LEANSCF-calculation: 13.5 MB


-------------------------------------------------------------------------------
                          DFT DISPERSION CORRECTION                            
                                                                               
                                DFTD4 V3.4.0                                   
-------------------------------------------------------------------------------
The wB97X-3c composite method is recognized
Using three-body term ABC
Active option DFTDOPT                   ...         5   

-------------------------   ----------------
Dispersion correction           -0.006335578
-------------------------   ----------------


-------------------------   --------------------
FINAL SINGLE POINT ENERGY       -52.450733168937
-------------------------   --------------------



           ************************************************************
           *        Program running with 4 parallel MPI-processes     *
           *              working on a common directory               *
           ************************************************************

------------------------------------------------------------------------------
                              ORCA PROPERTY CALCULATIONS
------------------------------------------------------------------------------

GBWName                                 ... orca.gbw
Number of atoms                         ...     11
Number of basis functions               ...     95
Max core memory                         ...   8000 MB

Electric properties:
Dipole moment                           ... YES
Quadrupole moment                       ...  NO
Static polarizability (Dipole/Dipole)   ...  NO
Static polarizability (Dipole/Quad.)    ...  NO
Static polarizability (Quad./Quad.)     ...  NO
Static polarizability (Velocity)        ...  NO

Atomic electric properties:
Dipole moment                           ...  NO
Quadrupole moment                       ...  NO
Static polarizability                   ...  NO

Choice of electric origin               ... Center of mass
Position of electric origin             ...    -0.003365    -0.013617     0.000263

General magnetic properties:
Magnetizability                         ...  NO

EPR properties:
g-Tensor (aka g-matrix)                 ...  NO
Zero-Field splitting spin-orbit         ...  NO
Zero-field splitting spin-spin          ...  NO
Hyperfine couplings                     ...  NO (   0 nuclei)
Quadrupole couplings                    ...  NO (   0 nuclei)
Contact density                         ...  NO (   0 nuclei)

NMR properties:
Chemical shifts                         ...  NO (   0 nuclei)
Spin-rotation constants                 ...  NO (   0 nuclei)
Spin-spin couplings                     ...  NO (   0 nuclei,    0 pairs)

Choice of magnetic origin               ... GIAO
Position of magnetic origin             ...     0.000000     0.000000     0.000000

Properties with geometric perturbations:
SCF Hessian                             ...  NO
IR spectrum                             ...  NO
VCD spectrum                            ...  NO
X-ray spectroscopy properties:
SCF XES/XAS/RIXS spectra                ...  NO


-------------
DIPOLE MOMENT
-------------

Method             : SCF
Type of density    : Electron Density
Multiplicity       :   2
Irrep              :   0
Energy             :   -52.4443975905872222 Eh
Relativity type    : 
Basis              : AO
                                X                 Y                 Z
Electronic contribution:      0.278813801       6.957203760      -0.007359243
Nuclear contribution   :     -0.838091131      -6.172786268       0.347879461
                        -----------------------------------------
Total Dipole Moment    :     -0.559277329       0.784417492       0.340520218
                        -----------------------------------------
Magnitude (a.u.)       :      1.021790561
Magnitude (Debye)      :      2.597185206



--------------------
Rotational spectrum 
--------------------
 
Rotational constants in cm-1:             0.494542             0.094221             0.088629 
Rotational constants in MHz :         14825.982441          2824.667050          2657.036887 

Dipole components along the rotational axes: 
x,y,z [a.u.] :     0.948277    -0.378159     0.042702 
x,y,z [Debye]:     2.410327    -0.961203     0.108541 

 

Dipole moment calculation done in   0.0 sec 

Maximum memory used throughout the entire PROP-calculation: 6.3 MB

--------------------------------
SUGGESTED CITATIONS FOR THIS RUN
--------------------------------

Below you find a list of papers that are relevant to this ORCA run
We neither can nor want to force you to cite these papers, but we appreciate if you do
You receive ORCA, which is the product of decades of hard work by many enthusiastic individuals, for free
The only thing we kindly ask in return is that you cite our papers,
We deeply appreciate it, if you show your appreciation for ORCA by not just citing the generic ORCA reference.

Please note that relegating all ORCA citations to the supporting information does *not* help us.
SI sections are not indexed - citations you put there will not count into any citation statistics
But we need these citations in order to attract the funding resources that allow us to do what we are doing

Therefore, if you are a happy ORCA user, please consider citing a few of the papers listed below in the main body of your paper

In addition to the list printed below, the program has created the file orca.bibtex that contains the list in bibtex format
You can import this file easily into all common literature databanks and citation aid programs


List of essential papers. We consider these as the minimum necessary citations

  1. Neese,F.
     Software update: the ORCA program system, version 5.0
     WIRES Comput. Molec. Sci., 2022 12(1)e1606
     doi.org/10.1002/wcms.1606
  2. Mueller,M.; Hansen,A.; Grimme,S.
     wB97X-3c: A composite range-separated hybrid DFT method with a molecule-optimized polarized valence double-zeta basis set
     J. Chem. Phys., 2023 158 014103
     doi.org/10.1063/5.0133026

List of papers to cite with high priority. The work reported in these papers was absolutely
necessary for this run to complete.
Our perspective: the developers of density functionals and basis sets usually get cited in chemistry papers
Good! But without the algorithms to do something with them, the functionals or basis sets would not do anything.
Hence, in our opinion, the algorithm design and method developments papers are equally worthy of getting cited

  1. Neese,F.
     An improvement of the resolution of the identity approximation for the formation of the Coulomb matrix
     J. Comp. Chem., 2003 24(14)1740-1747
     doi.org/10.1002/jcc.10318
  2. Neese,F.; Wennmohs,F.; Hansen,A.; Becker,U.
     Efficient, approximate and parallel Hartree-Fock and hybrid DFT calculations. A 'chain-of-spheres' algorithm for the Hartree-Fock exchange
     Chem. Phys., 2009 356(1-3)98-109
     doi.org/10.1016/j.chemphys.2008.10.036
  3. Helmich-Paris,B.; de Souza,B.; Neese,F.; Izsák,R.
     An improved chain of spheres for exchange algorithm
     J. Chem. Phys., 2021 155 104109
     doi.org/doi: 10.1063/5.0058766.
  4. Neese,F.
     The SHARK Integral Generation and Digestion System
     J. Comp. Chem., 2022  1-16
     doi.org/10.1002/jcc.26942
  5. Caldeweyher,E.; Bannwarth,C.; Grimme,S.
     Extension of the D3 dispersion coefficient model
     J. Chem. Phys., 2017 147 034112
     doi.org/10.1063/1.4993215
  6. Caldeweyher,E.; Ehlert,S.; Hansen,A.; Neugebauer,H.; Spicher,S.; Bannwarth,C.; Grimme,S.
     A generally applicable atomic-charge dependent London dispersion correction
     J. Chem. Phys., 2019 150 154122
     doi.org/10.1063/1.5090222
  7. Caldeweyher,E.; Mewes,J.; Ehlert,S.; Grimme,S.
     Extension and evaluation of the D4 London-dispersion model for periodic systems
     Phys. Chem. Chem. Phys., 2020 22(16)8499-8512
     doi.org/10.1039/D0CP00502A
  8. Wittmann,L.; Gordiy,I.; Friede,M.; Helmich-Paris,B.; Grimme,S.; Hansen,A.; Bursch,M.
     Extension of the D3 and D4 London Dispersion Corrections to the full Actinides Series
     Phys. Chem. Chem. Phys., 2024 26(32)21379-21394
     doi.org/https://doi.org/10.1039/D4CP01514B 

List of suggested additional citations. These are papers that are important in the 'surrounding' of 
of this run, or papers that preceded the highly important papers. If you like your results we are grateful for a citation.

  1. Izsak,R.; Neese,F.
     An overlap fitted chain of spheres exchange method
     J. Chem. Phys., 2011 135 144105
     doi.org/10.1063/1.3646921
  2. Izsak,R.; Hansen,A.; Neese,F.
     The resolution of identity and chain of spheres approximations for the LPNO-CCSD singles Fock term
     Molec. Phys., 2012 110 2413-2417
     doi.org/10.1080/00268976.2012.687466
  3. Neese,F.
     The ORCA program system
     WIRES Comput. Molec. Sci., 2012 2(1)73-78
     doi.org/10.1002/wcms.81
  4. Izsak,R.; Neese,F.; Klopper,W.
     Robust fitting techniques in the chain of spheres approximation to the Fock exchange: The role of the complementary space
     J. Chem. Phys., 2013 139 
     doi.org/10.1063/1.4819264
  5. Neese,F.
     Software update: the ORCA program system, version 4.0
     WIRES Comput. Molec. Sci., 2018 8(1)1-6
     doi.org/10.1002/wcms.1327
  6. Neese,F.; Wennmohs,F.; Becker,U.; Riplinger,C.
     The ORCA quantum chemistry program package
     J. Chem. Phys., 2020 152 Art. No. L224108
     doi.org/10.1063/5.0004608

List of optional additional citations

  1. Neese,F.
     Approximate second-order SCF convergence for spin unrestricted wavefunctions
     Chem. Phys. Lett., 2000 325(1-3)93-98
     doi.org/10.1016/s0009-2614(00)00662-x

Timings for individual modules:

Sum of individual times          ...       21.610 sec (=   0.360 min)
Startup calculation              ...        1.234 sec (=   0.021 min)   5.7 %
SCF iterations                   ...       19.831 sec (=   0.331 min)  91.8 %
Property calculations            ...        0.545 sec (=   0.009 min)   2.5 %
                             ****ORCA TERMINATED NORMALLY****
TOTAL RUN TIME: 0 days 0 hours 0 minutes 22 seconds 210 msec
