
                                 *****************
                                 * O   R   C   A *
                                 *****************

                                            #,                                       
                                            ###                                      
                                            ####                                     
                                            #####                                    
                                            ######                                   
                                           ########,                                 
                                     ,,################,,,,,                         
                               ,,#################################,,                 
                          ,,##########################################,,             
                       ,#########################################, ''#####,          
                    ,#############################################,,   '####,        
                  ,##################################################,,,,####,       
                ,###########''''           ''''###############################       
              ,#####''   ,,,,##########,,,,          '''####'''          '####       
            ,##' ,,,,###########################,,,                        '##       
           ' ,,###''''                  '''############,,,                           
         ,,##''                                '''############,,,,        ,,,,,,###''
      ,#''                                            '''#######################'''  
     '                                                          ''''####''''         
             ,#######,   #######,   ,#######,      ##                                
            ,#'     '#,  ##    ##  ,#'     '#,    #''#        ,####,   ,####,        
            ##       ##  ##   ,#'  ##            #'  '#       #'       #'  '#        
            ##       ##  #######   ##           ,######,      #####,   #    #        
            '#,     ,#'  ##    ##  '#,     ,#' ,#      #,     #,   #   #,  ,#        
             '#######'   ##     ##  '#######'  #'      '#     '####' # '####'        



                #########################################################
                #                        -***-                          #
                #          Department of theory and spectroscopy        #
                #                                                       #
                #                      Frank Neese                      #
                #                                                       #
                #     Directorship, Architecture, Infrastructure        #
                #                    SHARK, DRIVERS                     #
                #        Core code/Algorithms in most modules           #
                #                                                       #
                #        Max Planck Institute fuer Kohlenforschung      #
                #                Kaiser Wilhelm Platz 1                 #
                #                 D-45470 Muelheim/Ruhr                 #
                #                      Germany                          #
                #                                                       #
                #                  All rights reserved                  #
                #                        -***-                          #
                #########################################################


                         Program Version 6.0.1  -  RELEASE   -


 With contributions from (in alphabetic order):
[Max-Planck-Institut fuer Kohlenforschung]                               
  Daniel Aravena         : Magnetic Suceptibility                        
  Michael Atanasov       : Ab Initio Ligand Field Theory (pilot matlab implementation)
  Alexander A. Auer      : GIAO ZORA, VPT2 properties, NMR spectrum      
  Ute Becker             : All parallelization in ORCA, NUMFREQ, NUMCALC 
  Giovanni Bistoni       : ED, misc. LED, open-shell LED, HFLD           
  Martin Brehm           : Molecular dynamics                            
  Dmytro Bykov           : pre 5.0 version of the SCF Hessian            
  Marcos Casanova-Páez   : Triplet and SCS-CIS(D). UHF-(DLPNO)-IP/EA/STEOM-CCSD. UHF-CVS-IP/STEOM-CCSD   
  Vijay G. Chilkuri      : MRCI spin determinant printing, contributions to CSF-ICE 
  Pauline Colinet        : FMM embedding                                 
  Dipayan Datta          : RHF DLPNO-CCSD density                        
  Achintya Kumar Dutta   : EOM-CC, STEOM-CC                              
  Nicolas Foglia         : Exact transition moments, OPA infrastructure, MCD improvements    
  Dmitry Ganyushin       : Spin-Orbit,Spin-Spin,Magnetic field MRCI      
  Miquel Garcia-Rates    : C-PCM and meta-GGA Hessian, CCSD/C-PCM, Gaussian charge scheme 
  Tiago L. C. Gouveia    : GS-ROHF, GS-ROCIS                             
  Yang Guo               : DLPNO-NEVPT2, F12-NEVPT2, CIM, IAO-localization        
  Andreas Hansen         : Spin unrestricted coupled pair/coupled cluster methods 
  Ingolf Harden          : AUTO-CI MPn and infrastructure                
  Benjamin Helmich-Paris : MC-RPA, TRAH-(SCF,CASSCF), AVAS, COSX integrals, SCF dyn. polar. 
  Lee Huntington         : MR-EOM, pCC                                   
  Robert Izsak           : Overlap fitted RIJCOSX, COSX-SCS-MP3, EOM     
  Riya Kayal             : Wick's Theorem for AUTO-CI, AUTO-CI UHF-CCSDT 
  Emily Kempfer          : AUTO-CI, RHF CISDT and CCSDT                  
  Christian Kollmar      : KDIIS, OOCD, Brueckner-CCSD(T), CCSD density, CASPT2, CASPT2-K, improved NEVPT2 
  Axel Koslowski         : Symmetry handling                             
  Simone Kossmann        : meta-GGA functionals, TD-DFT gradient, OOMP2, (MP2 Hessian; deprecated post 5.0) 
  Lucas Lang             : DCDCAS                                        
  Marvin Lechner         : AUTO-CI (C++ implementation), FIC-MRCC        
  Spencer Leger          : CASSCF response                               
  Dagmar Lenk            : GEPOL surface, SMD, ORCA-2-JSON               
  Dimitrios Liakos       : Extrapolation schemes; Compound Job, initial MDCI parallelization 
  Dimitrios Manganas     : Further ROCIS development; embedding schemes. LFT, Crystal Embedding 
  Dimitrios Pantazis     : SARC Basis sets                               
  Anastasios Papadopoulos: AUTO-CI, single reference methods and gradients 
  Taras Petrenko         : pre 6.0 DFT Hessian and TD-DFT gradient, (ASA, deprecated), ECA, 1-Electron XAS/XES, NRVS 
  Peter Pinski           : DLPNO-MP2, DLPNO-MP2 Gradient                 
  Christoph Reimann      : Effective Core Potentials                     
  Marius Retegan         : Local ZFS, SOC                                
  Christoph Riplinger    : Optimizer, TS searches, QM/MM, DLPNO-CCSD(T), (RO)-DLPNO pert. Triples 
  Michael Roemelt        : Original ROCIS implementation                 
  Masaaki Saitow         : Open-shell DLPNO-CCSD energy and density      
  Barbara Sandhoefer     : DKH picture change effects                    
  Kantharuban Sivalingam : CASSCF convergence/infrastructure, NEVPT2 and variants, FIC-MRCI 
  Bernardo de Souza      : ESD, SOC TD-DFT                               
  Georgi L. Stoychev     : AutoAux, RI-MP2 NMR, DLPNO-MP2 response, X2C  
  Van Anh Tran           : RI-MP2 g-tensors                              
  Willem Van den Heuvel  : Paramagnetic NMR                              
  Zikuan Wang            : NOTCH, Electric field optimization            
  Frank Wennmohs         : Technical directorship and infrastructure     
  Hang Xu                : AUTO-CI-Response properties                   
                                                                         
[FACCTs GmbH]                                                            
  Markus Bursch, Miquel Garcia-Rates, Christoph Riplinger, Bernardo de Souza, Georgi L. Stoychev 
                                                                 
  APM, Basis sets (HGBS, AHGBS, def-TZVP (Ac-Lr), def2-XVPD (La-Lu)), CI-OPT, improved COSX, DLPNO-Multilevel,           
  DOCKER, DRACO, updates on ESD, GOAT, IRC, LR-CPCM, MBIS, meta-GGA TD-DFT gradient, ML-optimized integration grids, 
  MM, NACMEs, nearIR, NEB, NEB-TS, NL-DFT gradient (VV10), 2- and 3-layer-ONIOM, interface openCOSMO-RS, QMMM,   
  Crystal-QMMM, SF, symmetry and pop. for TD-DFT, r2SCAN hybrids, SOLVATOR                                   
                                                                         
[Other institutions]                                                     
  V. Asgeirsson          : NEB                                           
  Christoph Bannwarth    : sTDA-DFT, sTD-DFT, PBEh-3c, B97-3c, D3        
  Sebastian Ehlert       : rSCAN, r2SCAN, r2SCAN-3c, D4, dhf basis sets  
  Marvin Friede          : D4 for Fr, Ra, Ac-Lr                          
  Lars Goerigk           : TD-DFT with DH, B97 family of functionals     
  Stefan Grimme          : VdW corrections, initial TS optimization, DFT functionals, gCP, sTDA/sTD-DF 
  Waldemar Hujo          : DFT-NL                                        
  H. Jonsson             : NEB                                           
  Holger Kruse           : gCP                                           
  Marcel Mueller         : wB97X-3c, vDZP basis set                      
  Hagen Neugebauer       : wr2SCAN                                       
  Tobias Risthaus        : range-separated hybrid DFT                    
  Lukas Wittmann         : regularized MP2, r2SCAN double-hybrids, wr2SCAN        
                                                                         
We gratefully acknowledge several colleagues who have allowed us to      
interface, adapt or use parts of their codes:                            
  Ed Valeev, F. Pavosevic, A. Kumar             : LibInt (2-el integral package), F12 methods 
  Garnet Chan, S. Sharma, J. Yang, R. Olivares  : DMRG                   
  Ulf Ekstrom                                   : XCFun DFT Library      
  Mihaly Kallay                                 : mrcc  (arbitrary order and MRCC methods)
  Frank Weinhold                                : gennbo (NPA and NBO analysis)           
  Simon Mueller                                 : openCOSMO-RS                            
  Christopher J. Cramer and Donald G. Truhlar   : smd solvation model                     
  S Lehtola, MJT Oliveira, MAL Marques          : LibXC Library                           
  Liviu Ungur et al                             : ANISO software                          


 Your calculation uses the libint2 library for the computation of 2-el integrals
 For citations please refer to: http://libint.valeyev.net

 Your ORCA version has been built with support for libXC version: 6.2.2
 For citations please refer to: https://libxc.gitlab.io

 This ORCA versions uses:
   CBLAS   interface :  Fast vector & matrix operations
   LAPACKE interface :  Fast linear algebra routines
   SCALAPACK package :  Parallel linear algebra routines
   Shared memory     :  Shared parallel matrices
   BLAS/LAPACK       :  OpenBLAS 0.3.27  USE64BITINT DYNAMIC_ARCH NO_AFFINITY Haswell SINGLE_THREADED
        Core in use  :  Haswell
   Copyright (c) 2011-2014, The OpenBLAS Project


NOTE: MaxCore=8000 MB was set to SCF,MP2,MDCI,CIPSI,MRCI and CIS
      => If you want to overwrite this, your respective input block should be placed after the MaxCore statement


***************************************
The coordinates will be read from file: fragment.xyz
***************************************


Your calculation utilizes the atom-pairwise dispersion correction
based on EEQ partial charges (D4)


================================================================================

cite the ECPs for C  [vDZP-ECP], O  [vDZP-ECP] as follows:
   B-Ne (ecp-2-mwb), Al-Ar (ecp-10-mwb), Ga-Kr (ecp-28-mwb), Y-Cd (ecp-28-mwb), In-Xe (ecp-46-mwb):
     A. Bergner, M. Dolg, W. Küchle, H. Stoll, and H. Preuß, Mol. Phys. 80, 1431 (1993)., T. Leininger, A. Berning, A. Nicklass, H. Stoll, H.-J. Werner, and H.-J.Flad, Chem. Phys. 217, 19 (1997).
   Na-Mg, K-Ca, Rb-Sr, Cs-Ba (CRENBL):
     L. Fernandez Pacios and P. A. Christiansen, J. Chem. Phys. 82, 2664 (1985)., M. M. Hurley, L. F. Pacios, P. A. Christiansen, R. B. Ross, and W. C. Ermler, J. Chem. Phys. 84, 6840 (1986)., L. A. LaJohn, P. A. Christiansen, R. B. Ross, T. Atashroo, and W. C. Ermler, J. Chem. Phys. 87, 2812 (1987)., R. B. Ross, J. M. Powers, T. Atashroo, W. C. Ermler, L. A. LaJohn, and P. A. Christiansen, J. Chem. Phys. 93, 6654 (1990). 
   Sc-Zn (ecp-10-mdf):
     M. Dolg, U. Wedig, H. Stoll, and H. Preuss, J. Chem. Phys. 86, 866 (1986). 
   Y-Cd (ecp-28-mwb), Hf-Hg (ecp-60-mwb):
     D. Andrae, U. Häußermann, M. Dolg, H. Stoll, and H. Preuß, Theor. Chim. Acta 77, 123 (1990). 
   La (ecp-46-mwb):
     M. Dolg, H. Stoll, and H. Preuss, J. Chem. Phys. 90, 1730 (1989)., M. Dolg, H. Stoll, and H. Preuss, Theor. Chim. Acta 85, 441 (1993).
   Ce-Lu (SBKJC-ecp):
     T. R. Cundari and W. J. Stevens, J. Chem. Phys. 98, 5555 (1993).
   Tl-Rn (ecp-78-mwb):
     W. Küchle, M. Dolg, H. Stoll, and H. Preuss, Mol. Phys. 74, 1245 (1991).

ECP parameters for C  [vDZP-ECP], O  [vDZP-ECP] have been obtained from:
MM, AH, SG, J. Chem. Phys. 158, 014103 (2023), 10.1063/5.0133026

----- Orbital basis set information -----
Your calculation utilizes the basis: vDZP
   Marcel Mueller, Andreas Hansen, Stefan Grimme 
   J. Chem. Phys. 158, 014103 (2023). DOI: 10.1063/5.0133026

----- AuxJ basis set information -----
Your calculation utilizes the auxiliary basis: def2/J
   F. Weigend, Phys. Chem. Chem. Phys. 8, 1057 (2006).

================================================================================
                                        WARNINGS
                       Please study these warnings very carefully!
================================================================================

WARNING: Frozen-Core approximation turned on, but there are no core electrons.
  ===> : Turning off frozen-core approximation

WARNING: Old DensityContainer found on disk!
         Will remove this file - 
         If you want to keep old densities, please start your calculation with a different basename. 


WARNING: your system is open-shell and RHF/RKS was chosen
  ===> : WILL SWITCH to UHF/UKS


================================================================================
                                       INPUT FILE
================================================================================
NAME = orca.inp
|  1>  ! DEFGRID2 
|  2>  ! wB97X-3c
|  3>  ! SP
|  4>  %pal
|  5> nprocs 1
|  6>  end
|  7>  %maxcore 8000
|  8>  *xyzfile            0             2  fragment.xyz
|  9> 
| 10>                          ****END OF INPUT****
================================================================================

                       ****************************
                       * Single Point Calculation *
                       ****************************

---------------------------------
CARTESIAN COORDINATES (ANGSTROEM)
---------------------------------
  C      0.848916   -3.713384   -0.414037
  C      1.596796   -2.574579    0.236917
  O      1.125601   -1.328802   -0.040593
  H      0.877668   -3.620018   -1.498170
  H      1.293572   -4.669289   -0.138813
  H     -0.193248   -3.715104   -0.099697
  H      2.666419   -2.578577   -0.025746
  H      1.611071   -2.666767    1.334734

----------------------------
CARTESIAN COORDINATES (A.U.)
----------------------------
  NO LB      ZA    FRAG     MASS         X           Y           Z
   0 C     4.0000*   0    12.011    1.604219   -7.017278   -0.782417
   1 C     4.0000*   0    12.011    3.017508   -4.865248    0.447708
   2 O     6.0000*   0    15.999    2.127077   -2.511073   -0.076710
   3 H     1.0000    0     1.008    1.658552   -6.840843   -2.831132
   4 H     1.0000    0     1.008    2.444497   -8.823677   -0.262318
   5 H     1.0000    0     1.008   -0.365186   -7.020529   -0.188400
   6 H     1.0000    0     1.008    5.038801   -4.872805   -0.048653
   7 H     1.0000    0     1.008    3.044484   -5.039459    2.522281
* core charge reduced due to ECP

--------------------------------
INTERNAL COORDINATES (ANGSTROEM)
--------------------------------
 C      0   0   0     0.000000000000     0.00000000     0.00000000
 C      1   0   0     1.509948118673     0.00000000     0.00000000
 O      2   1   0     1.360512792507   115.53868097     0.00000000
 H      1   2   3     1.088525552730   110.58510877    59.86034687
 H      1   2   3     1.089597116319   110.52632750   179.93348167
 H      1   2   3     1.088539981673   110.54231559   300.00407353
 H      2   1   3     1.101408147189   112.05267013   237.21061339
 H      2   1   3     1.101773136508   111.89294017   122.11615533

---------------------------
INTERNAL COORDINATES (A.U.)
---------------------------
 C      0   0   0     0.000000000000     0.00000000     0.00000000
 C      1   0   0     2.853388420722     0.00000000     0.00000000
 O      2   1   0     2.570996579535   115.53868097     0.00000000
 H      1   2   3     2.057015184435   110.58510877    59.86034687
 H      1   2   3     2.059040146153   110.52632750   179.93348167
 H      1   2   3     2.057042451186   110.54231559   300.00407353
 H      2   1   3     2.081359759857   112.05267013   237.21061339
 H      2   1   3     2.082049489712   111.89294017   122.11615533

---------------------
BASIS SET INFORMATION
---------------------
There are 3 groups of distinct atoms

 Group   1 Type C   : 6s6p2d contracted to 2s2p1d pattern {42/42/2}
 Group   2 Type O   : 6s6p2d contracted to 2s2p1d pattern {42/42/2}
 Group   3 Type H   : 8s2p contracted to 2s1p pattern {53/2}

Atom   0C    basis set group =>   1
Atom   1C    basis set group =>   1
Atom   2O    basis set group =>   2
Atom   3H    basis set group =>   3
Atom   4H    basis set group =>   3
Atom   5H    basis set group =>   3
Atom   6H    basis set group =>   3
Atom   7H    basis set group =>   3
---------------------------------
AUXILIARY/J BASIS SET INFORMATION
---------------------------------
There are 3 groups of distinct atoms

 Group   1 Type C   : 12s5p4d2f1g contracted to 6s4p3d1f1g pattern {711111/2111/211/2/1}
 Group   2 Type O   : 12s5p4d2f1g contracted to 6s4p3d1f1g pattern {711111/2111/211/2/1}
 Group   3 Type H   : 5s2p1d contracted to 3s1p1d pattern {311/2/1}

Atom   0C    basis set group =>   1
Atom   1C    basis set group =>   1
Atom   2O    basis set group =>   2
Atom   3H    basis set group =>   3
Atom   4H    basis set group =>   3
Atom   5H    basis set group =>   3
Atom   6H    basis set group =>   3
Atom   7H    basis set group =>   3
-------------------------
ECP PARAMETER INFORMATION
-------------------------

 Group 1, Type C  ECP vDZP-ECP (replacing 2 core electrons, lmax=3)
 Group 2, Type O  ECP vDZP-ECP (replacing 2 core electrons, lmax=3)

Atom   0C    ECP group =>   1
Atom   1C    ECP group =>   1
Atom   2O    ECP group =>   2

------------------------------------------------------------------------------
                             ORCA STARTUP CALCULATIONS
                           -- RI-GTO INTEGRALS CHOSEN --
------------------------------------------------------------------------------
------------------------------------------------------------------------------
                   ___                                                        
                  /   \      - P O W E R E D   B Y -                         
                 /     \                                                     
                 |  |  |   _    _      __       _____    __    __             
                 |  |  |  | |  | |    /  \     |  _  \  |  |  /  |          
                  \  \/   | |  | |   /    \    | | | |  |  | /  /          
                 / \  \   | |__| |  /  /\  \   | |_| |  |  |/  /          
                |  |  |   |  __  | /  /__\  \  |    /   |      \           
                |  |  |   | |  | | |   __   |  |    \   |  |\   \          
                \     /   | |  | | |  |  |  |  | |\  \  |  | \   \       
                 \___/    |_|  |_| |__|  |__|  |_| \__\ |__|  \__/        
                                                                              
                      - O R C A' S   B I G   F R I E N D -                    
                                      &                                       
                       - I N T E G R A L  F E E D E R -                       
                                                                              
 v1 FN, 2020, v2 2021, v3 2022-2024                                           
------------------------------------------------------------------------------


----------------------
SHARK INTEGRAL PACKAGE
----------------------

Number of atoms                             ...      8
Number of basis functions                   ...     64
Number of shells                            ...     30
Maximum angular momentum                    ...      2
Integral batch strategy                     ... SHARK/LIBINT Hybrid
RI-J (if used) integral strategy            ... SPLIT-RIJ (Revised 2003 algorithm where possible)
Printlevel                                  ...      1
Contraction scheme used                     ... SEGMENTED contraction
Prescreening option                         ... SCHWARTZ
   Thresh                                   ... 1.000e-10
   Tcut                                     ... 1.000e-11
   Tpresel                                  ... 1.000e-11 
Coulomb Range Separation                    ... NOT USED
Exchange Range Separation                   ... Long Range
   Mu parameter                             ... 3.000e-01
   Scaling (regular/separated)              ... 1.670e-01 8.330e-01
Multipole approximations                    ... NOT USED
Finite Nucleus Model                        ... NOT USED
CABS basis                                  ... NOT available
Auxiliary Coulomb fitting basis             ... AVAILABLE
   # of basis functions in Aux-J            ...    202
   # of shells in Aux-J                     ...     70
   Maximum angular momentum in Aux-J        ...      4
Auxiliary J/K fitting basis                 ... NOT available
Auxiliary Correlation fitting basis         ... NOT available
Auxiliary 'external' fitting basis          ... NOT available

Checking pre-screening integrals            ... done (  0.0 sec) Dimension = 30
Check shell pair data                       ... done (  0.0 sec)
Shell pair information
Shell pair cut-off parameter TPreSel        ...   1.0e-11
Total number of shell pairs                 ...       465
Shell pairs after pre-screening             ...       465
Total number of primitive shell pairs       ...      4393
Primitive shell pairs kept                  ...      4113
          la=0 lb=0:    136 shell pairs
          la=1 lb=0:    176 shell pairs
          la=1 lb=1:     66 shell pairs
          la=2 lb=0:     48 shell pairs
          la=2 lb=1:     33 shell pairs
          la=2 lb=2:      6 shell pairs

Calculating one electron integrals          ... done (  0.0 sec)
Calculating ECP integrals                   ... done (  0.0 sec)
Calculating RI/J V-Matrix + Cholesky decomp.... done (  0.0 sec)
Calculating Nuclear repulsion               ... done (  0.0 sec) ENN=     43.615396499689 Eh

Diagonalization of the overlap matrix:
Smallest eigenvalue                        ... 3.098e-03
Time for diagonalization                   ...    0.001 sec
Threshold for overlap eigenvalues          ... 1.000e-07
Number of eigenvalues below threshold      ... 0
Time for construction of square roots      ...    0.000 sec
Total time needed                          ...    0.001 sec

-------------------
DFT GRID GENERATION
-------------------

General Integration Accuracy     IntAcc      ... 4.388
Radial Grid Type                 RadialGrid  ... OptM3 with GC (2021)
Angular Grid (max. ang.)         AngularGrid ... 4 (Lebedev-302)
Angular grid pruning method      GridPruning ... 4 (adaptive)
Weight generation scheme         WeightScheme... mBecke (2022)
Basis function cutoff            BFCut       ... 1.0000e-10
Integration weight cutoff        WCut        ... 1.0000e-14
Partially contracted basis set               ... off
Rotationally invariant grid construction     ... off
Angular grids for H and He will be reduced by one unit

Total number of grid points                  ...    34522
Total number of batches                      ...      542
Average number of points per batch           ...       63
Average number of grid points per atom       ...     4315

--------------------
COSX GRID GENERATION
--------------------

GRIDX 1
-------
General Integration Accuracy     IntAcc      ... 3.816
Radial Grid Type                 RadialGrid  ... OptM3 with GC (2021)
Angular Grid (max. ang.)         AngularGrid ... 1 (Lebedev-50)
Angular grid pruning method      GridPruning ... 4 (adaptive)
Weight generation scheme         WeightScheme... mBecke (2022)
Basis function cutoff            BFCut       ... 1.0000e-10
Integration weight cutoff        WCut        ... 1.0000e-14
Partially contracted basis set               ... on
Rotationally invariant grid construction     ... off
Angular grids for H and He will be reduced by one unit

Total number of grid points                  ...     4447
Total number of batches                      ...       40
Average number of points per batch           ...      111
Average number of grid points per atom       ...      556
UseSFitting                                  ... on

GRIDX 2
-------
General Integration Accuracy     IntAcc      ... 4.020
Radial Grid Type                 RadialGrid  ... OptM3 with GC (2021)
Angular Grid (max. ang.)         AngularGrid ... 2 (Lebedev-110)
Angular grid pruning method      GridPruning ... 4 (adaptive)
Weight generation scheme         WeightScheme... mBecke (2022)
Basis function cutoff            BFCut       ... 1.0000e-10
Integration weight cutoff        WCut        ... 1.0000e-14
Partially contracted basis set               ... on
Rotationally invariant grid construction     ... off
Angular grids for H and He will be reduced by one unit

Total number of grid points                  ...     9447
Total number of batches                      ...       77
Average number of points per batch           ...      122
Average number of grid points per atom       ...     1181
UseSFitting                                  ... on

GRIDX 3
-------
General Integration Accuracy     IntAcc      ... 4.338
Radial Grid Type                 RadialGrid  ... OptM3 with GC (2021)
Angular Grid (max. ang.)         AngularGrid ... 3 (Lebedev-194)
Angular grid pruning method      GridPruning ... 4 (adaptive)
Weight generation scheme         WeightScheme... mBecke (2022)
Basis function cutoff            BFCut       ... 1.0000e-10
Integration weight cutoff        WCut        ... 1.0000e-14
Partially contracted basis set               ... on
Rotationally invariant grid construction     ... off
Angular grids for H and He will be reduced by one unit

Total number of grid points                  ...    20874
Total number of batches                      ...      168
Average number of points per batch           ...      124
Average number of grid points per atom       ...     2609
UseSFitting                                  ... on
Initializing property integral containers    ... done (  0.0 sec)

SHARK setup successfully completed in   0.6 seconds

Maximum memory used throughout the entire STARTUP-calculation: 16.2 MB
-------------------------------------------------------------------------------
                                 ORCA GUESS
                   Start orbitals & Density for SCF / CASSCF
-------------------------------------------------------------------------------

------------
SCF SETTINGS
------------
Hamiltonian:
 Density Functional     Method          .... DFT(GTOs)
 Exchange Functional    Exchange        .... WB97X-V
 Correlation Functional Correlation     .... WB97X-V
 Gradients option       PostSCFGGA      .... off
 Hybrid DFT is turned on
   Fraction HF Exchange ScalHFX         ....  0.167000
   Scaling of DF-GGA-X  ScalDFX         ....  0.000000
   Scaling of DF-GGA-C  ScalDFC         ....  1.000000
   Scaling of DF-LDA-C  ScalLDAC        ....  1.000000
   Perturbative correction              ....  0.000000
 Long-range corrected/Screened/Range-Separated Hybrid DFT is turned on
   Amount of maximum screened exact exchange              ....  0.833000
   Range separation parameter mu (erf(mu*r12)/r12)        ....  0.300000
   NL short-range parameter             ....  6.000000
   NL long-range parameter              ....  0.010000
 RI-approximation to the Coulomb term is turned on
   Number of AuxJ basis functions       .... 202
   RIJ-COSX (HFX calculated with COS-X)).... on


General Settings:
 Integral files         IntName         .... orca
 Hartree-Fock type      HFTyp           .... UHF
 Total Charge           Charge          ....    0
 Multiplicity           Mult            ....    2
 Number of Electrons    NEL             ....   19
 Basis Dimension        Dim             ....   64
 Nuclear Repulsion      ENuc            ....     43.6153964997 Eh

Convergence Acceleration:
 AO-DIIS                CNVDIIS         .... on
   Start iteration      DIISMaxIt       ....    12
   Startup error        DIISStart       ....  0.200000
   # of expansion vecs  DIISMaxEq       ....     5
   Bias factor          DIISBfac        ....   1.050
   Max. coefficient     DIISMaxC        ....  10.000
 MO-DIIS                CNVKDIIS        .... off
 Trust-Rad. Augm. Hess. CNVTRAH         .... auto
   Auto Start mean grad. ratio tolernc. ....  1.125000
   Auto Start start iteration           ....    50
   Auto Start num. interpolation iter.  ....    10
   Max. Number of Micro iterations      ....    24
   Max. Number of Macro iterations      .... Maxiter - #DIIS iter
   Number of Davidson start vectors     ....     2
   Converg. threshold    (grad. norm)   ....   5.000e-05
   Grad. Scal. Fac. for Micro threshold ....   0.100
   Minimum threshold for Micro iter.    ....   1.000e-02
   NR start threshold (gradient norm)   ....   1.000e-04
   Initial trust radius                 ....   0.400
   Minimum AH scaling param. (alpha)    ....   1.000
   Maximum AH scaling param. (alpha)    .... 1000.000
   Quad. conv. algorithm                .... NR
   White noise on init. David. guess    .... on
   Maximum white noise                  ....   0.010
   Pseudo random numbers                .... off
   Inactive MOs                         .... canonical
   Orbital update algorithm             .... Taylor
   Preconditioner                       .... Diag
   Full preconditioner red. dimension   ....   250
 SOSCF                  CNVSOSCF        .... on
   Start iteration      SOSCFMaxIt      ....   150
   Startup grad/error   SOSCFStart      ....  0.003300
   Hessian update       SOSCFHessUp     .... L-BFGS
 Level Shifting         CNVShift        .... on
   Level shift para.    LevelShift      ....    0.2500
   Turn off err/grad.   ShiftErr        ....    0.0010
 Zerner damping         CNVZerner       .... off
 Static damping         CNVDamp         .... on
   Fraction old density DampFac         ....    0.7000
   Max. Damping (<1)    DampMax         ....    0.9800
   Min. Damping (>=0)   DampMin         ....    0.0000
   Turn off err/grad.   DampErr         ....    0.1000

SCF Procedure:
 Maximum # iterations   MaxIter         ....   125
 SCF integral mode      SCFMode         .... Direct
   Integral package                     .... SHARK and LIBINT hybrid scheme
 Reset frequency        DirectResetFreq ....    20
 Integral Threshold     Thresh          ....  1.000e-10 Eh
 Primitive CutOff       TCut            ....  1.000e-11 Eh

Convergence Tolerance:
 Convergence Check Mode ConvCheckMode   .... Total+1el-Energy
 Convergence forced     ConvForced      .... 0
 Energy Change          TolE            ....  1.000e-06 Eh
 1-El. energy change                    ....  1.000e-03 Eh
 Orbital Gradient       TolG            ....  5.000e-05
 Orbital Rotation angle TolX            ....  5.000e-05
 DIIS Error             TolErr          ....  1.000e-06

------------------------------
INITIAL GUESS: MODEL POTENTIAL
------------------------------
Loading Hartree-Fock densities                     ... done
Atomic calculation to generate a density for atom 0 (C  with ECP)
  Multiplicity assumed   :    1
  Atomic configuration   : 1s2 2s2 2p2 
  Number of open shells  : 1
  Command: /home/alejandro/orca_6_0_1/orca orca_atom6.inp "" > orca_atom6.out
Returned from the atomic calculation with res=0
Atomic calculation to generate a density for atom 2 (O  with ECP)
  Multiplicity assumed   :    3
  Atomic configuration   : 1s2 2s2 2p4 
  Number of open shells  : 1
  Command: /home/alejandro/orca_6_0_1/orca orca_atom8.inp "" > orca_atom8.out
Returned from the atomic calculation with res=0
Calculating cut-offs                               ... done
Initializing the effective Hamiltonian             ... done
Setting up the integral package (SHARK)            ... done
Starting the Coulomb interaction                   ... done (   0.1 sec)
Making the grid                                    ... done (   0.1 sec)
Mapping shells                                     ... done
Starting the XC term evaluation                    ... done (   0.1 sec)
  promolecular density results
     # of electrons  =     24.997502547
     EX              =    -13.289382285
     EC              =     -1.003302575
     EX+EC           =    -14.292684860
Transforming the Hamiltonian                       ... done (   0.0 sec)
Diagonalizing the Hamiltonian                      ... done (   0.0 sec)
Back transforming the eigenvectors                 ... done (   0.0 sec)
Now organizing SCF variables                       ... done
                      ------------------
                      INITIAL GUESS DONE (   1.0 sec)
                      ------------------
             **** ENERGY FILE WAS UPDATED (orca.en.tmp) ****
Finished Guess after   1.0 sec
Maximum memory used throughout the entire GUESS-calculation: 9.0 MB

-------------------------------------------------------------------------------------------
                                      ORCA LEAN-SCF
                              memory conserving SCF solver
-------------------------------------------------------------------------------------------

----------------------------------------D-I-I-S--------------------------------------------
Iteration    Energy (Eh)           Delta-E    RMSDP     MaxDP     DIISErr   Damp  Time(sec)
-------------------------------------------------------------------------------------------
               ***  Starting incremental Fock matrix formation  ***
    1    -30.2671127973053231     0.00e+00  2.44e-03  3.36e-02  8.63e-02  0.700   2.8
    2    -30.3128167715562782    -4.57e-02  1.79e-03  2.48e-02  5.36e-02  0.700   1.5
                               ***Turning on AO-DIIS***
    3    -30.3379224219093331    -2.51e-02  9.11e-04  1.12e-02  2.94e-02  0.700   1.5
    4    -30.3533500831031304    -1.54e-02  2.06e-03  2.78e-02  1.93e-02  0.000   1.5
    5    -30.3885807726222978    -3.52e-02  4.29e-04  7.00e-03  8.77e-03  0.000   3.4
    6    -30.3895641825108171    -9.83e-04  4.12e-04  6.81e-03  5.00e-03  0.000   1.6
    7    -30.3900909330259665    -5.27e-04  2.04e-04  3.56e-03  3.59e-03  0.000   1.5
                              *** Initializing SOSCF ***
---------------------------------------S-O-S-C-F--------------------------------------
Iteration    Energy (Eh)           Delta-E    RMSDP     MaxDP     MaxGrad    Time(sec)
--------------------------------------------------------------------------------------
    8    -30.3902659667784079    -1.75e-04  1.29e-04  1.55e-03  1.30e-03     1.4
               *** Restarting incremental Fock matrix formation ***
    9    -30.3903272397977204    -6.13e-05  5.08e-05  7.74e-04  1.57e-03     2.8
   10    -30.3903361661083053    -8.93e-06  6.17e-05  8.30e-04  5.38e-04     2.4
   11    -30.3903402929775339    -4.13e-06  1.23e-05  2.91e-04  1.34e-04     2.5
   12    -30.3903406061658572    -3.13e-07  8.32e-06  2.68e-04  9.32e-05     2.2
                 **** Energy Check signals convergence ****

               *****************************************************
               *                     SUCCESS                       *
               *           SCF CONVERGED AFTER  12 CYCLES          *
               *****************************************************

Recomputing exchange energy using gridx3       ... done (    5.149 sec)
Old exchange energy                            :     -3.779289006 Eh
New exchange energy                            :     -3.779297681 Eh
Exchange energy change after final integration :     -0.000008675 Eh
Total energy after final integration           :    -30.390349282 Eh
             **** ENERGY FILE WAS UPDATED (orca.en.tmp) ****

----------------
TOTAL SCF ENERGY
----------------

Total Energy       :        -30.39034928162586 Eh            -826.96345 eV

Components:
Nuclear Repulsion  :         43.61539649968896 Eh            1186.83528 eV
Electronic Energy  :        -74.00573710585482 Eh           -2013.79849 eV
One Electron Energy:       -132.88785958827876 Eh           -3616.06250 eV
Two Electron Energy:         58.88212248242394 Eh            1602.26401 eV

Virial components:
Potential Energy   :        -54.28312087735857 Eh           -1477.11881 eV
Kinetic Energy     :         23.89277159573270 Eh             650.15537 eV
Virial Ratio       :          2.27194742392522

DFT components:
N(Alpha)           :       10.000000455268 electrons
N(Beta)            :        9.000001072675 electrons
N(Total)           :       19.000001527943 electrons
E(X)               :       -4.360087458530 Eh       
E(C)               :       -0.702254468517 Eh       
E(XC)              :       -5.062341927047 Eh       

---------------
SCF CONVERGENCE
---------------

  Last Energy change         ...    3.1319e-07  Tolerance :   1.0000e-06
  Last MAX-Density change    ...    2.6846e-04  Tolerance :   1.0000e-05
  Last RMS-Density change    ...    8.3217e-06  Tolerance :   1.0000e-06
  Last DIIS Error            ...    1.2999e-03  Tolerance :   1.0000e-06
  Last Orbital Gradient      ...    9.3181e-05  Tolerance :   5.0000e-05
  Last Orbital Rotation      ...    4.2195e-04  Tolerance :   5.0000e-05


----------------------
UHF SPIN CONTAMINATION
----------------------

Warning: in a DFT calculation there is little theoretical justification to 
         calculate <S**2> as in Hartree-Fock theory. We will do it anyways
         but you should keep in mind that the values have only limited relevance

Expectation value of <S**2>     :     0.753887
Ideal value S*(S+1) for S=0.5   :     0.750000
Deviation                       :     0.003887

----------------
ORBITAL ENERGIES
----------------
                 SPIN UP ORBITALS
  NO   OCC          E(Eh)            E(eV) 
   0   1.0000      -1.158607       -31.5273 
   1   1.0000      -0.887812       -24.1586 
   2   1.0000      -0.748343       -20.3634 
   3   1.0000      -0.622472       -16.9383 
   4   1.0000      -0.583901       -15.8888 
   5   1.0000      -0.543669       -14.7940 
   6   1.0000      -0.509349       -13.8601 
   7   1.0000      -0.497615       -13.5408 
   8   1.0000      -0.430985       -11.7277 
   9   1.0000      -0.401813       -10.9339 
  10   0.0000       0.088767         2.4155 
  11   0.0000       0.113799         3.0966 
  12   0.0000       0.118780         3.2322 
  13   0.0000       0.140369         3.8196 
  14   0.0000       0.169135         4.6024 
  15   0.0000       0.221738         6.0338 
  16   0.0000       0.300919         8.1884 
  17   0.0000       0.393974        10.7206 
  18   0.0000       0.399502        10.8710 
  19   0.0000       0.458676        12.4812 
  20   0.0000       0.485228        13.2037 

                 SPIN DOWN ORBITALS
  NO   OCC          E(Eh)            E(eV) 
   0   1.0000      -1.108282       -30.1579 
   1   1.0000      -0.878333       -23.9007 
   2   1.0000      -0.733831       -19.9685 
   3   1.0000      -0.587347       -15.9825 
   4   1.0000      -0.572279       -15.5725 
   5   1.0000      -0.532898       -14.5009 
   6   1.0000      -0.490747       -13.3539 
   7   1.0000      -0.479661       -13.0523 
   8   1.0000      -0.381219       -10.3735 
   9   0.0000      -0.043269        -1.1774 
  10   0.0000       0.089490         2.4351 
  11   0.0000       0.114404         3.1131 
  12   0.0000       0.120171         3.2700 
  13   0.0000       0.140568         3.8250 
  14   0.0000       0.173140         4.7114 
  15   0.0000       0.228889         6.2284 
  16   0.0000       0.301331         8.1996 
  17   0.0000       0.394827        10.7438 
  18   0.0000       0.404348        11.0029 
  19   0.0000       0.463400        12.6098 
*Only the first 10 virtual orbitals were printed.

                    ********************************
                    * MULLIKEN POPULATION ANALYSIS *
                    ********************************

--------------------------------------------
MULLIKEN ATOMIC CHARGES AND SPIN POPULATIONS
--------------------------------------------
   0 C :   -0.066303   -0.000571
   1 C :    0.092736   -0.033598
   2 O :   -0.247922    0.894883
   3 H :    0.041114    0.001443
   4 H :    0.032581   -0.001403
   5 H :    0.040788    0.001327
   6 H :    0.052952    0.067816
   7 H :    0.054053    0.070104
Sum of atomic charges         :    0.0000000
Sum of atomic spin populations:    1.0000000

-----------------------------------------------------
MULLIKEN REDUCED ORBITAL CHARGES AND SPIN POPULATIONS
-----------------------------------------------------
CHARGE
  0 C s       :     0.939157  s :     0.939157
      pz      :     1.043309  p :     3.058845
      px      :     1.036247
      py      :     0.979288
      dz2     :     0.022261  d :     0.068301
      dxz     :     0.006729
      dyz     :     0.009034
      dx2y2   :     0.017065
      dxy     :     0.013211

  1 C s       :     1.004719  s :     1.004719
      pz      :     1.011159  p :     2.749938
      px      :     0.974590
      py      :     0.764189
      dz2     :     0.033512  d :     0.152607
      dxz     :     0.007979
      dyz     :     0.028656
      dx2y2   :     0.049288
      dxy     :     0.033172

  2 O s       :     1.883006  s :     1.883006
      pz      :     1.356977  p :     4.339100
      px      :     1.544959
      py      :     1.437164
      dz2     :     0.003652  d :     0.025817
      dxz     :     0.001191
      dyz     :     0.006037
      dx2y2   :     0.007848
      dxy     :     0.007089

  3 H s       :     0.914370  s :     0.914370
      pz      :     0.023528  p :     0.044516
      px      :     0.010420
      py      :     0.010568

  4 H s       :     0.921431  s :     0.921431
      pz      :     0.011639  p :     0.045987
      px      :     0.012732
      py      :     0.021617

  5 H s       :     0.914705  s :     0.914705
      pz      :     0.011280  p :     0.044507
      px      :     0.022723
      py      :     0.010505

  6 H s       :     0.903832  s :     0.903832
      pz      :     0.011559  p :     0.043216
      px      :     0.023779
      py      :     0.007878

  7 H s       :     0.902676  s :     0.902676
      pz      :     0.024567  p :     0.043272
      px      :     0.010652
      py      :     0.008053


SPIN
  0 C s       :     0.000005  s :     0.000005
      pz      :    -0.000464  p :    -0.000944
      px      :    -0.000587
      py      :     0.000106
      dz2     :     0.000610  d :     0.000368
      dxz     :     0.000015
      dyz     :    -0.000112
      dx2y2   :    -0.000053
      dxy     :    -0.000092

  1 C s       :    -0.012422  s :    -0.012422
      pz      :    -0.013631  p :    -0.043564
      px      :    -0.014235
      py      :    -0.015699
      dz2     :     0.007911  d :     0.022388
      dxz     :     0.001184
      dyz     :     0.007078
      dx2y2   :     0.003370
      dxy     :     0.002845

  2 O s       :     0.008258  s :     0.008258
      pz      :     0.552821  p :     0.887620
      px      :     0.318110
      py      :     0.016689
      dz2     :    -0.000150  d :    -0.000995
      dxz     :     0.000164
      dyz     :    -0.000568
      dx2y2   :    -0.000150
      dxy     :    -0.000291

  3 H s       :     0.001476  s :     0.001476
      pz      :    -0.000018  p :    -0.000033
      px      :    -0.000015
      py      :    -0.000000

  4 H s       :    -0.001346  s :    -0.001346
      pz      :    -0.000022  p :    -0.000058
      px      :    -0.000019
      py      :    -0.000016

  5 H s       :     0.001356  s :     0.001356
      pz      :    -0.000011  p :    -0.000029
      px      :    -0.000023
      py      :     0.000005

  6 H s       :     0.068653  s :     0.068653
      pz      :    -0.000253  p :    -0.000837
      px      :    -0.000649
      py      :     0.000065

  7 H s       :     0.070943  s :     0.070943
      pz      :    -0.000560  p :    -0.000838
      px      :    -0.000352
      py      :     0.000073



                     *******************************
                     * LOEWDIN POPULATION ANALYSIS *
                     *******************************

-------------------------------------------
LOEWDIN ATOMIC CHARGES AND SPIN POPULATIONS
-------------------------------------------
   0 C :   -0.113906   -0.001596
   1 C :   -0.097163    0.048264
   2 O :   -0.063834    0.857015
   3 H :    0.047162    0.000502
   4 H :    0.047478   -0.001355
   5 H :    0.047178    0.000462
   6 H :    0.066014    0.047514
   7 H :    0.067071    0.049193

----------------------------------------------------
LOEWDIN REDUCED ORBITAL CHARGES AND SPIN POPULATIONS
----------------------------------------------------
CHARGE
  0 C s       :     0.774082  s :     0.774082
      pz      :     1.052516  p :     3.107913
      px      :     1.045055
      py      :     1.010342
      dz2     :     0.077009  d :     0.231911
      dxz     :     0.021672
      dyz     :     0.029281
      dx2y2   :     0.061459
      dxy     :     0.042491

  1 C s       :     0.759866  s :     0.759866
      pz      :     1.025197  p :     2.880475
      px      :     1.000918
      py      :     0.854360
      dz2     :     0.106671  d :     0.456822
      dxz     :     0.024227
      dyz     :     0.080087
      dx2y2   :     0.148261
      dxy     :     0.097576

  2 O s       :     1.637053  s :     1.637053
      pz      :     1.328939  p :     4.365839
      px      :     1.515881
      py      :     1.521019
      dz2     :     0.008055  d :     0.060942
      dxz     :     0.002722
      dyz     :     0.015218
      dx2y2   :     0.018100
      dxy     :     0.016846

  3 H s       :     0.800962  s :     0.800962
      pz      :     0.067937  p :     0.151875
      px      :     0.043091
      py      :     0.040847

  4 H s       :     0.800638  s :     0.800638
      pz      :     0.044456  p :     0.151884
      px      :     0.046132
      py      :     0.061295

  5 H s       :     0.800993  s :     0.800993
      pz      :     0.044731  p :     0.151829
      px      :     0.066317
      py      :     0.040781

  6 H s       :     0.789746  s :     0.789746
      pz      :     0.042841  p :     0.144240
      px      :     0.071002
      py      :     0.030397

  7 H s       :     0.788610  s :     0.788610
      pz      :     0.072718  p :     0.144320
      px      :     0.040796
      py      :     0.030805


SPIN
  0 C s       :    -0.000598  s :    -0.000598
      pz      :    -0.000639  p :    -0.002054
      px      :    -0.000512
      py      :    -0.000903
      dz2     :     0.001709  d :     0.001057
      dxz     :     0.000094
      dyz     :    -0.000331
      dx2y2   :    -0.000182
      dxy     :    -0.000233

  1 C s       :    -0.004135  s :    -0.004135
      pz      :     0.003307  p :    -0.012866
      px      :    -0.002328
      py      :    -0.013845
      dz2     :     0.022684  d :     0.065265
      dxz     :     0.003301
      dyz     :     0.019912
      dx2y2   :     0.010611
      dxy     :     0.008756

  2 O s       :     0.010680  s :     0.010680
      pz      :     0.528791  p :     0.846749
      px      :     0.304477
      py      :     0.013480
      dz2     :     0.000062  d :    -0.000413
      dxz     :     0.000220
      dyz     :    -0.000261
      dx2y2   :    -0.000160
      dxy     :    -0.000274

  3 H s       :     0.000569  s :     0.000569
      pz      :     0.000001  p :    -0.000067
      px      :    -0.000034
      py      :    -0.000033

  4 H s       :    -0.000943  s :    -0.000943
      pz      :    -0.000123  p :    -0.000412
      px      :    -0.000069
      py      :    -0.000220

  5 H s       :     0.000533  s :     0.000533
      pz      :    -0.000018  p :    -0.000071
      px      :    -0.000015
      py      :    -0.000038

  6 H s       :     0.047931  s :     0.047931
      pz      :    -0.000213  p :    -0.000417
      px      :    -0.000379
      py      :     0.000175

  7 H s       :     0.049568  s :     0.049568
      pz      :     0.000095  p :    -0.000375
      px      :    -0.000966
      py      :     0.000496



                      *****************************
                      * MAYER POPULATION ANALYSIS *
                      *****************************

  NA   - Mulliken gross atomic population
  ZA   - Total nuclear charge
  QA   - Mulliken gross atomic charge
  VA   - Mayer's total valence
  BVA  - Mayer's bonded valence
  FA   - Mayer's free valence

  ATOM       NA         ZA         QA         VA         BVA        FA
  0 C      4.0663     4.0000    -0.0663     3.9582     3.9582     0.0000
  1 C      3.9073     4.0000     0.0927     4.0134     4.0085     0.0049
  2 O      6.2479     6.0000    -0.2479     1.9436     1.1778     0.7658
  3 H      0.9589     1.0000     0.0411     1.0384     1.0384     0.0000
  4 H      0.9674     1.0000     0.0326     1.0398     1.0397     0.0000
  5 H      0.9592     1.0000     0.0408     1.0385     1.0385     0.0000
  6 H      0.9470     1.0000     0.0530     1.0350     1.0300     0.0050
  7 H      0.9459     1.0000     0.0541     1.0350     1.0297     0.0053

  Mayer bond orders larger than 0.100000
B(  0-C ,  1-C ) :   0.9915 B(  0-C ,  3-H ) :   0.9886 B(  0-C ,  4-H ) :   0.9905 
B(  0-C ,  5-H ) :   0.9888 B(  1-C ,  2-O ) :   1.0775 B(  1-C ,  6-H ) :   0.9539 
B(  1-C ,  7-H ) :   0.9523 

-------
TIMINGS
-------

Total SCF time: 0 days 0 hours 0 min 30 sec 

Total time                  ....      30.460 sec
Sum of individual times     ....      30.442 sec  ( 99.9%)

SCF preparation             ....       0.081 sec  (  0.3%)
Fock matrix formation       ....      29.955 sec  ( 98.3%)
  Startup                   ....       0.002 sec  (  0.0% of F)
  Split-RI-J                ....       1.011 sec  (  3.4% of F)
  Chain of spheres X        ....      23.821 sec  ( 79.5% of F)
  XC integration            ....       3.869 sec  ( 12.9% of F)
    Basis function eval.    ....       1.090 sec  ( 28.2% of XC)
    Density eval.           ....       0.729 sec  ( 18.8% of XC)
    XC-Functional eval.     ....       0.818 sec  ( 21.1% of XC)
    XC-Potential eval.      ....       1.089 sec  ( 28.2% of XC)
Diagonalization             ....       0.000 sec  (  0.0%)
Density matrix formation    ....       0.027 sec  (  0.1%)
Total Energy calculation    ....       0.002 sec  (  0.0%)
Population analysis         ....       0.003 sec  (  0.0%)
Orbital Transformation      ....       0.004 sec  (  0.0%)
Orbital Orthonormalization  ....       0.000 sec  (  0.0%)
DIIS solution               ....       0.363 sec  (  1.2%)
SOSCF solution              ....       0.006 sec  (  0.0%)
Finished LeanSCF after  30.5 sec

Maximum memory used throughout the entire LEANSCF-calculation: 10.1 MB


-------------------------------------------------------------------------------
                          DFT DISPERSION CORRECTION                            
                                                                               
                                DFTD4 V3.4.0                                   
-------------------------------------------------------------------------------
The wB97X-3c composite method is recognized
Using three-body term ABC
Active option DFTDOPT                   ...         5   

-------------------------   ----------------
Dispersion correction           -0.004028238
-------------------------   ----------------


-------------------------   --------------------
FINAL SINGLE POINT ENERGY       -30.394377519519
-------------------------   --------------------


------------------------------------------------------------------------------
                              ORCA PROPERTY CALCULATIONS
------------------------------------------------------------------------------

GBWName                                 ... orca.gbw
Number of atoms                         ...      8
Number of basis functions               ...     64
Max core memory                         ...   8000 MB

Electric properties:
Dipole moment                           ... YES
Quadrupole moment                       ...  NO
Static polarizability (Dipole/Dipole)   ...  NO
Static polarizability (Dipole/Quad.)    ...  NO
Static polarizability (Quad./Quad.)     ...  NO
Static polarizability (Velocity)        ...  NO

Atomic electric properties:
Dipole moment                           ...  NO
Quadrupole moment                       ...  NO
Static polarizability                   ...  NO

Choice of electric origin               ... Center of mass
Position of electric origin             ...     2.251579    -4.788038    -0.134532

General magnetic properties:
Magnetizability                         ...  NO

EPR properties:
g-Tensor (aka g-matrix)                 ...  NO
Zero-Field splitting spin-orbit         ...  NO
Zero-field splitting spin-spin          ...  NO
Hyperfine couplings                     ...  NO (   0 nuclei)
Quadrupole couplings                    ...  NO (   0 nuclei)
Contact density                         ...  NO (   0 nuclei)

NMR properties:
Chemical shifts                         ...  NO (   0 nuclei)
Spin-rotation constants                 ...  NO (   0 nuclei)
Spin-spin couplings                     ...  NO (   0 nuclei,    0 pairs)

Choice of magnetic origin               ... GIAO
Position of magnetic origin             ...     0.000000     0.000000     0.000000

Properties with geometric perturbations:
SCF Hessian                             ...  NO
IR spectrum                             ...  NO
VCD spectrum                            ...  NO
X-ray spectroscopy properties:
SCF XES/XAS/RIXS spectra                ...  NO


-------------
DIPOLE MOMENT
-------------

Method             : SCF
Type of density    : Electron Density
Multiplicity       :   2
Irrep              :   0
Energy             :   -30.3903492816258627 Eh
Relativity type    : 
Basis              : AO
                                X                 Y                 Z
Electronic contribution:      0.023986631       3.416696976       0.240830647
Nuclear contribution   :      0.290523803      -4.221137435      -0.051203459
                        -----------------------------------------
Total Dipole Moment    :      0.314510434      -0.804440459       0.189627187
                        -----------------------------------------
Magnitude (a.u.)       :      0.884307489
Magnitude (Debye)      :      2.247731007



--------------------
Rotational spectrum 
--------------------
 
Rotational constants in cm-1:             1.339125             0.323327             0.287703 
Rotational constants in MHz :         40145.967733          9693.102013          8625.121168 

Dipole components along the rotational axes: 
x,y,z [a.u.] :    -0.710082     0.527048     0.002009 
x,y,z [Debye]:    -1.804884     1.339649     0.005107 

 

Dipole moment calculation done in   0.0 sec 

Maximum memory used throughout the entire PROP-calculation: 5.6 MB

--------------------------------
SUGGESTED CITATIONS FOR THIS RUN
--------------------------------

Below you find a list of papers that are relevant to this ORCA run
We neither can nor want to force you to cite these papers, but we appreciate if you do
You receive ORCA, which is the product of decades of hard work by many enthusiastic individuals, for free
The only thing we kindly ask in return is that you cite our papers,
We deeply appreciate it, if you show your appreciation for ORCA by not just citing the generic ORCA reference.

Please note that relegating all ORCA citations to the supporting information does *not* help us.
SI sections are not indexed - citations you put there will not count into any citation statistics
But we need these citations in order to attract the funding resources that allow us to do what we are doing

Therefore, if you are a happy ORCA user, please consider citing a few of the papers listed below in the main body of your paper

In addition to the list printed below, the program has created the file orca.bibtex that contains the list in bibtex format
You can import this file easily into all common literature databanks and citation aid programs


List of essential papers. We consider these as the minimum necessary citations

  1. Neese,F.
     Software update: the ORCA program system, version 5.0
     WIRES Comput. Molec. Sci., 2022 12(1)e1606
     doi.org/10.1002/wcms.1606
  2. Mueller,M.; Hansen,A.; Grimme,S.
     wB97X-3c: A composite range-separated hybrid DFT method with a molecule-optimized polarized valence double-zeta basis set
     J. Chem. Phys., 2023 158 014103
     doi.org/10.1063/5.0133026

List of papers to cite with high priority. The work reported in these papers was absolutely
necessary for this run to complete.
Our perspective: the developers of density functionals and basis sets usually get cited in chemistry papers
Good! But without the algorithms to do something with them, the functionals or basis sets would not do anything.
Hence, in our opinion, the algorithm design and method developments papers are equally worthy of getting cited

  1. Neese,F.
     An improvement of the resolution of the identity approximation for the formation of the Coulomb matrix
     J. Comp. Chem., 2003 24(14)1740-1747
     doi.org/10.1002/jcc.10318
  2. Neese,F.; Wennmohs,F.; Hansen,A.; Becker,U.
     Efficient, approximate and parallel Hartree-Fock and hybrid DFT calculations. A 'chain-of-spheres' algorithm for the Hartree-Fock exchange
     Chem. Phys., 2009 356(1-3)98-109
     doi.org/10.1016/j.chemphys.2008.10.036
  3. Helmich-Paris,B.; de Souza,B.; Neese,F.; Izsák,R.
     An improved chain of spheres for exchange algorithm
     J. Chem. Phys., 2021 155 104109
     doi.org/doi: 10.1063/5.0058766.
  4. Neese,F.
     The SHARK Integral Generation and Digestion System
     J. Comp. Chem., 2022  1-16
     doi.org/10.1002/jcc.26942
  5. Caldeweyher,E.; Bannwarth,C.; Grimme,S.
     Extension of the D3 dispersion coefficient model
     J. Chem. Phys., 2017 147 034112
     doi.org/10.1063/1.4993215
  6. Caldeweyher,E.; Ehlert,S.; Hansen,A.; Neugebauer,H.; Spicher,S.; Bannwarth,C.; Grimme,S.
     A generally applicable atomic-charge dependent London dispersion correction
     J. Chem. Phys., 2019 150 154122
     doi.org/10.1063/1.5090222
  7. Caldeweyher,E.; Mewes,J.; Ehlert,S.; Grimme,S.
     Extension and evaluation of the D4 London-dispersion model for periodic systems
     Phys. Chem. Chem. Phys., 2020 22(16)8499-8512
     doi.org/10.1039/D0CP00502A
  8. Wittmann,L.; Gordiy,I.; Friede,M.; Helmich-Paris,B.; Grimme,S.; Hansen,A.; Bursch,M.
     Extension of the D3 and D4 London Dispersion Corrections to the full Actinides Series
     Phys. Chem. Chem. Phys., 2024 26(32)21379-21394
     doi.org/https://doi.org/10.1039/D4CP01514B 

List of suggested additional citations. These are papers that are important in the 'surrounding' of 
of this run, or papers that preceded the highly important papers. If you like your results we are grateful for a citation.

  1. Izsak,R.; Neese,F.
     An overlap fitted chain of spheres exchange method
     J. Chem. Phys., 2011 135 144105
     doi.org/10.1063/1.3646921
  2. Izsak,R.; Hansen,A.; Neese,F.
     The resolution of identity and chain of spheres approximations for the LPNO-CCSD singles Fock term
     Molec. Phys., 2012 110 2413-2417
     doi.org/10.1080/00268976.2012.687466
  3. Neese,F.
     The ORCA program system
     WIRES Comput. Molec. Sci., 2012 2(1)73-78
     doi.org/10.1002/wcms.81
  4. Izsak,R.; Neese,F.; Klopper,W.
     Robust fitting techniques in the chain of spheres approximation to the Fock exchange: The role of the complementary space
     J. Chem. Phys., 2013 139 
     doi.org/10.1063/1.4819264
  5. Neese,F.
     Software update: the ORCA program system, version 4.0
     WIRES Comput. Molec. Sci., 2018 8(1)1-6
     doi.org/10.1002/wcms.1327
  6. Neese,F.; Wennmohs,F.; Becker,U.; Riplinger,C.
     The ORCA quantum chemistry program package
     J. Chem. Phys., 2020 152 Art. No. L224108
     doi.org/10.1063/5.0004608

List of optional additional citations

  1. Neese,F.
     Approximate second-order SCF convergence for spin unrestricted wavefunctions
     Chem. Phys. Lett., 2000 325(1-3)93-98
     doi.org/10.1016/s0009-2614(00)00662-x

Timings for individual modules:

Sum of individual times          ...       32.269 sec (=   0.538 min)
Startup calculation              ...        0.646 sec (=   0.011 min)   2.0 %
SCF iterations                   ...       31.534 sec (=   0.526 min)  97.7 %
Property calculations            ...        0.089 sec (=   0.001 min)   0.3 %
                             ****ORCA TERMINATED NORMALLY****
TOTAL RUN TIME: 0 days 0 hours 0 minutes 32 seconds 413 msec
