 Entering Gaussian System
 *********************************************
 Gaussian 98:
 frequency output generated by the xtb code
 *********************************************
                         Standard orientation:
 --------------------------------------------------------------------
  Center     Atomic     Atomic              Coordinates (Angstroms)
  Number     Number      Type              X           Y           Z
 --------------------------------------------------------------------
    1          6             0        0.656713   -2.315311   -0.159921
    2          6             0        0.017394   -1.115461    0.002111
    3          6             0        0.087550    1.251767    0.137180
    4          8             0        0.703313   -0.004242   -0.021993
    5          8             0       -1.204743    1.161213    0.546774
    6          1             0        1.726659   -2.357686   -0.301606
    7          1             0        0.101325   -3.238797   -0.135346
    8          1             0        0.152582    1.726573   -0.870840
    9          1             0       -1.058323   -1.049755    0.160131
   10          1             0       -1.410327    1.662964    1.345327
   11          1             0        0.757592    1.834244    0.792378
 --------------------------------------------------------------------
     1 basis functions        1 primitive gaussians
     1 alpha electrons        1 beta electrons

 Harmonic frequencies (cm**-1), IR intensities (km*mol⁻¹),
 Raman scattering activities (A**4/amu), Raman depolarization ratios,
 reduced masses (AMU), force constants (mDyne/A) and normal coordinates:
                      1                      2                      3
                        a                      a                      a 
 Frequencies --   -70.8539               128.9101               205.9416
 Red. masses --     5.8919                 7.3018                10.2559
 Frc consts  --     0.0000                 0.0000                 0.0000
 IR Inten    --   269.7810                41.1988                28.0218
 Raman Activ --     0.0000                 0.0000                 0.0000
 Depolar     --     0.0000                 0.0000                 0.0000
 Atom AN      X      Y      Z        X      Y      Z        X      Y      Z
   1   6    -0.08   0.08   0.15     0.05  -0.04   0.41     0.37  -0.03  -0.08
   2   6    -0.06   0.09  -0.15    -0.06   0.04  -0.53    -0.13  -0.28  -0.13
   3   6     0.08  -0.04   0.05    -0.02   0.03   0.06    -0.00  -0.07  -0.05
   4   8     0.01   0.12  -0.17    -0.03   0.00  -0.22    -0.33  -0.19   0.16
   5   8     0.09  -0.42   0.20     0.03   0.05   0.18     0.02   0.48   0.16
   6   1    -0.01  -0.00   0.15     0.05  -0.03   0.41     0.13   0.12   0.08
   7   1    -0.04   0.03   0.02    -0.00  -0.00   0.03     0.21  -0.07  -0.11
   8   1     0.05   0.09   0.06    -0.04   0.05   0.04     0.02  -0.07  -0.04
   9   1    -0.02   0.04  -0.09    -0.05   0.02  -0.35    -0.05  -0.15  -0.10
  10   1    -0.19   0.59  -0.45     0.10  -0.28   0.25     0.02   0.38  -0.12
  11   1    -0.01  -0.04   0.08     0.03  -0.04   0.02     0.06  -0.03  -0.06
                      4                      5                      6
                        a                      a                      a 
 Frequencies --   206.5317               397.6391               442.7985
 Red. masses --     9.1224                10.0839                 3.6026
 Frc consts  --     0.0000                 0.0000                 0.0000
 IR Inten    --    40.9182                 1.1257                 4.6907
 Raman Activ --     0.0000                 0.0000                 0.0000
 Depolar     --     0.0000                 0.0000                 0.0000
 Atom AN      X      Y      Z        X      Y      Z        X      Y      Z
   1   6     0.13  -0.00   0.10     0.07   0.44   0.02     0.00   0.01  -0.08
   2   6    -0.04  -0.10   0.14    -0.48   0.10   0.07     0.03  -0.03   0.38
   3   6     0.13  -0.00   0.37     0.19  -0.06  -0.09     0.01   0.05  -0.07
   4   8    -0.22  -0.03  -0.53    -0.15  -0.15   0.11    -0.11   0.04  -0.19
   5   8    -0.04   0.14  -0.19     0.27  -0.32  -0.10     0.06  -0.04  -0.02
   6   1     0.02   0.06  -0.13     0.03   0.37  -0.03     0.07  -0.03   0.53
   7   1     0.10  -0.04   0.18     0.22   0.01   0.01    -0.09   0.04  -0.68
   8   1     0.20   0.23   0.23     0.03  -0.04  -0.03     0.03   0.07   0.02
   9   1     0.01  -0.07   0.20    -0.14   0.03  -0.01     0.00  -0.03   0.09
  10   1    -0.07  -0.06  -0.00     0.07  -0.20   0.05     0.01  -0.07   0.02
  11   1     0.03  -0.21   0.31     0.05   0.00  -0.04     0.01  -0.03   0.02
                      7                      8                      9
                        a                      a                      a 
 Frequencies --   645.6469               853.2450               875.7830
 Red. masses --    12.3526                 8.9465                 3.5813
 Frc consts  --     0.0000                 0.0000                 0.0000
 IR Inten    --     2.7656                25.8225                49.1167
 Raman Activ --     0.0000                 0.0000                 0.0000
 Depolar     --     0.0000                 0.0000                 0.0000
 Atom AN      X      Y      Z        X      Y      Z        X      Y      Z
   1   6    -0.06   0.27   0.03    -0.13  -0.24  -0.02    -0.05   0.07  -0.42
   2   6    -0.04   0.16   0.05    -0.14  -0.12   0.02     0.01   0.01   0.01
   3   6    -0.08  -0.54   0.05    -0.09   0.54   0.06     0.05  -0.04   0.20
   4   8     0.47  -0.21  -0.19     0.38  -0.25  -0.11    -0.04   0.01  -0.04
   5   8    -0.32   0.24   0.06    -0.07   0.00   0.05     0.04   0.01  -0.06
   6   1    -0.00   0.19   0.07    -0.00   0.33   0.07     0.08  -0.07   0.60
   7   1     0.06   0.03  -0.09     0.31  -0.27  -0.04     0.03   0.01   0.52
   8   1    -0.04  -0.12   0.02    -0.06   0.03  -0.02    -0.08  -0.20  -0.05
   9   1     0.00   0.18   0.03    -0.03   0.11   0.02     0.03  -0.04   0.20
  10   1     0.06   0.11   0.02    -0.17   0.02  -0.04    -0.09  -0.03  -0.02
  11   1    -0.04  -0.12  -0.00    -0.05   0.15   0.03     0.03   0.14  -0.11
                     10                     11                     12
                        a                      a                      a 
 Frequencies --   877.7422               930.1635               986.9475
 Red. masses --     4.4437                 4.7585                 9.1517
 Frc consts  --     0.0000                 0.0000                 0.0000
 IR Inten    --    10.4923                48.1698                28.3163
 Raman Activ --     0.0000                 0.0000                 0.0000
 Depolar     --     0.0000                 0.0000                 0.0000
 Atom AN      X      Y      Z        X      Y      Z        X      Y      Z
   1   6    -0.03  -0.00  -0.24    -0.00  -0.01   0.06     0.26   0.27   0.00
   2   6     0.06  -0.01   0.40     0.02  -0.07   0.24    -0.11   0.07   0.04
   3   6    -0.07   0.02  -0.26     0.14  -0.08   0.39    -0.06   0.35   0.03
   4   8     0.02  -0.02  -0.01    -0.06   0.11  -0.21     0.10  -0.55  -0.09
   5   8    -0.04  -0.01   0.09     0.04   0.04  -0.09    -0.07  -0.00   0.05
   6   1     0.01  -0.00   0.09    -0.03   0.00  -0.18     0.04  -0.35  -0.06
   7   1     0.05  -0.02   0.30    -0.01   0.00  -0.10    -0.34   0.32   0.03
   8   1     0.15   0.23   0.06    -0.29  -0.28  -0.07     0.02  -0.09  -0.05
   9   1    -0.09   0.06  -0.64    -0.07  -0.00  -0.50    -0.04  -0.06  -0.04
  10   1     0.13   0.02   0.04    -0.23  -0.04  -0.05    -0.13   0.01  -0.02
  11   1    -0.06  -0.19   0.16     0.12   0.27  -0.26     0.01   0.01   0.03
                     13                     14                     15
                        a                      a                      a 
 Frequencies --  1119.0695              1128.6827              1186.3498
 Red. masses --     9.6473                 3.6131                 8.4208
 Frc consts  --     0.0000                 0.0000                 0.0000
 IR Inten    --    78.2675               130.8823               117.8537
 Raman Activ --     0.0000                 0.0000                 0.0000
 Depolar     --     0.0000                 0.0000                 0.0000
 Atom AN      X      Y      Z        X      Y      Z        X      Y      Z
   1   6     0.08  -0.03  -0.04     0.05  -0.05   0.01    -0.10  -0.05   0.01
   2   6    -0.18  -0.10   0.01    -0.12  -0.04   0.02     0.37   0.31  -0.03
   3   6     0.60   0.03  -0.16     0.23   0.07   0.07     0.27   0.12  -0.08
   4   8     0.10   0.09   0.06    -0.01   0.10  -0.11    -0.33  -0.20   0.01
   5   8    -0.48  -0.04   0.06    -0.28  -0.11   0.04    -0.28  -0.06   0.12
   6   1     0.02  -0.12   0.03     0.01  -0.07  -0.02    -0.02   0.17   0.00
   7   1    -0.02   0.01   0.02     0.01  -0.02  -0.03     0.08  -0.07  -0.02
   8   1    -0.33   0.34   0.09     0.44  -0.30  -0.11     0.24  -0.29  -0.14
   9   1    -0.04  -0.06   0.06    -0.04  -0.04  -0.03     0.10   0.20  -0.02
  10   1     0.01   0.00   0.04     0.47   0.11   0.06    -0.16  -0.05   0.02
  11   1     0.20   0.02  -0.10    -0.32   0.40   0.06     0.30  -0.22  -0.04
                     16                     17                     18
                        a                      a                      a 
 Frequencies --  1188.4809              1238.6848              1289.2319
 Red. masses --     4.2794                 3.3717                 4.1880
 Frc consts  --     0.0000                 0.0000                 0.0000
 IR Inten    --    58.5327                24.0734                20.2405
 Raman Activ --     0.0000                 0.0000                 0.0000
 Depolar     --     0.0000                 0.0000                 0.0000
 Atom AN      X      Y      Z        X      Y      Z        X      Y      Z
   1   6     0.00   0.04   0.01    -0.28   0.20   0.05    -0.00  -0.03   0.00
   2   6    -0.10  -0.14  -0.01     0.25  -0.06  -0.04     0.27  -0.04  -0.04
   3   6     0.14  -0.17  -0.27     0.03   0.06  -0.00     0.18  -0.08  -0.06
   4   8     0.09   0.15  -0.01     0.07  -0.08  -0.01    -0.23  -0.26   0.01
   5   8     0.02   0.14   0.24    -0.06  -0.01   0.00     0.07   0.04   0.00
   6   1    -0.01  -0.04  -0.02    -0.07   0.33   0.02     0.01   0.37   0.02
   7   1    -0.02   0.02   0.01    -0.10   0.08   0.02    -0.28   0.17   0.04
   8   1     0.37  -0.02  -0.05     0.01   0.02   0.00    -0.25   0.21   0.08
   9   1    -0.02  -0.10   0.01     0.03  -0.80  -0.07     0.09   0.29  -0.00
  10   1    -0.68  -0.23   0.04     0.06   0.02   0.01    -0.01   0.01  -0.01
  11   1    -0.23   0.15   0.05     0.02   0.01  -0.01    -0.42   0.33   0.13
                     19                     20                     21
                        a                      a                      a 
 Frequencies --  1306.9585              1349.5324              1471.7537
 Red. masses --     4.1273                 2.9854                 9.5540
 Frc consts  --     0.0000                 0.0000                 0.0000
 IR Inten    --   101.6789                95.0506                40.4044
 Raman Activ --     0.0000                 0.0000                 0.0000
 Depolar     --     0.0000                 0.0000                 0.0000
 Atom AN      X      Y      Z        X      Y      Z        X      Y      Z
   1   6     0.07  -0.02  -0.01    -0.09   0.12   0.02     0.27  -0.53  -0.07
   2   6    -0.06  -0.42  -0.02     0.14   0.12  -0.02    -0.24   0.59   0.07
   3   6    -0.14   0.06   0.07    -0.13  -0.11   0.08    -0.05  -0.11   0.02
   4   8     0.10   0.17   0.01    -0.08  -0.24   0.01     0.04  -0.01  -0.01
   5   8    -0.08  -0.06  -0.00    -0.01  -0.02  -0.01     0.03   0.01   0.00
   6   1     0.03   0.37   0.02    -0.03  -0.19  -0.01     0.10   0.24  -0.00
   7   1    -0.40   0.26   0.07     0.21  -0.11  -0.03    -0.24   0.04   0.04
   8   1     0.31   0.04   0.03     0.31   0.45   0.24     0.07   0.07   0.06
   9   1     0.02   0.24   0.02     0.04   0.02  -0.01    -0.10  -0.23  -0.00
  10   1     0.05  -0.01   0.02     0.00   0.01  -0.01    -0.04  -0.00  -0.01
  11   1     0.35  -0.04  -0.28     0.13   0.39  -0.47     0.03   0.05  -0.11
                     22                     23                     24
                        a                      a                      a 
 Frequencies --  2705.9010              2851.8310              3002.0244
 Red. masses --     1.7357                 1.6473                 1.8193
 Frc consts  --     0.0000                 0.0000                 0.0000
 IR Inten    --    70.5388                46.7062                 2.2438
 Raman Activ --     0.0000                 0.0000                 0.0000
 Depolar     --     0.0000                 0.0000                 0.0000
 Atom AN      X      Y      Z        X      Y      Z        X      Y      Z
   1   6    -0.00   0.01   0.00    -0.00   0.01   0.00    -0.02   0.00   0.00
   2   6     0.00  -0.01  -0.00     0.00  -0.01   0.00     0.27  -0.03  -0.04
   3   6    -0.01   0.07  -0.25     0.16   0.14   0.11     0.00  -0.00   0.00
   4   8    -0.00   0.02  -0.00    -0.00   0.02   0.00     0.01   0.00  -0.00
   5   8     0.01   0.00  -0.01     0.01   0.00  -0.00     0.00  -0.00   0.00
   6   1     0.00   0.00  -0.00     0.00   0.00   0.00     0.05  -0.00  -0.01
   7   1    -0.00  -0.00   0.00    -0.00  -0.01  -0.00     0.02   0.03  -0.00
   8   1    -0.05  -0.41   0.86     0.02  -0.04   0.16     0.00   0.00  -0.01
   9   1    -0.01  -0.00  -0.00    -0.01  -0.00   0.00    -0.95   0.05   0.14
  10   1    -0.00   0.00  -0.01    -0.01   0.01   0.01    -0.00   0.00  -0.00
  11   1     0.09   0.10   0.05    -0.57  -0.50  -0.58     0.01   0.00   0.00
                     25                     26                     27
                        a                      a                      a 
 Frequencies --  3078.4447              3130.2950              3498.6711
 Red. masses --     1.5181                 2.1252                 1.8796
 Frc consts  --     0.0000                 0.0000                 0.0000
 IR Inten    --    85.3061                29.9880               220.2043
 Raman Activ --     0.0000                 0.0000                 0.0000
 Depolar     --     0.0000                 0.0000                 0.0000
 Atom AN      X      Y      Z        X      Y      Z        X      Y      Z
   1   6    -0.15   0.15   0.03    -0.25  -0.19   0.02     0.00  -0.00  -0.00
   2   6    -0.00  -0.01  -0.00    -0.02  -0.00   0.00    -0.00   0.00   0.00
   3   6    -0.00  -0.00   0.00     0.00   0.00  -0.00     0.00  -0.00  -0.01
   4   8    -0.00  -0.00  -0.00     0.00   0.00   0.00    -0.00   0.00  -0.00
   5   8     0.00   0.00   0.00    -0.00  -0.00  -0.00     0.05  -0.13  -0.20
   6   1     0.81  -0.02  -0.11     0.50  -0.04  -0.07     0.00  -0.00   0.00
   7   1    -0.29  -0.45   0.01     0.40   0.69  -0.02    -0.00  -0.00  -0.00
   8   1     0.00   0.00  -0.00    -0.00  -0.00   0.00     0.00  -0.00   0.00
   9   1     0.02  -0.00  -0.00     0.05  -0.00  -0.01     0.00  -0.00  -0.00
  10   1     0.00  -0.00  -0.01     0.00   0.00   0.00    -0.21   0.51   0.80
  11   1     0.00   0.00   0.00    -0.00  -0.00  -0.00     0.00   0.01   0.01
