 Entering Gaussian System
 *********************************************
 Gaussian 98:
 frequency output generated by the xtb code
 *********************************************
                         Standard orientation:
 --------------------------------------------------------------------
  Center     Atomic     Atomic              Coordinates (Angstroms)
  Number     Number      Type              X           Y           Z
 --------------------------------------------------------------------
    1          6             0       -2.186342   -3.202735   -0.090424
    2          6             0       -0.850386   -2.677671   -0.033243
    3          8             0       -0.512830   -1.493873    0.173851
    4          1             0       -2.337133   -3.712944   -1.051018
    5          1             0       -2.286826   -4.027994    0.626619
    6          1             0       -2.969553   -2.462828    0.071410
    7          1             0       -0.004580   -3.358056   -0.180631
    8          1             0       -1.217935   -0.821294    0.317794
 --------------------------------------------------------------------
     1 basis functions        1 primitive gaussians
     1 alpha electrons        1 beta electrons

 Harmonic frequencies (cm**-1), IR intensities (km*mol⁻¹),
 Raman scattering activities (A**4/amu), Raman depolarization ratios,
 reduced masses (AMU), force constants (mDyne/A) and normal coordinates:
                      1                      2                      3
                        a                      a                      a 
 Frequencies --   188.5823               470.3355               651.3928
 Red. masses --     2.8438                 8.4077                 3.2657
 Frc consts  --     0.0000                 0.0000                 0.0000
 IR Inten    --    30.8724                 6.1601                22.9150
 Raman Activ --     0.0000                 0.0000                 0.0000
 Depolar     --     0.0000                 0.0000                 0.0000
 Atom AN      X      Y      Z        X      Y      Z        X      Y      Z
   1   6    -0.00   0.01  -0.04     0.18   0.33   0.06     0.00  -0.02   0.12
   2   6    -0.01   0.06  -0.30     0.38  -0.29  -0.07     0.01  -0.05   0.28
   3   8     0.01  -0.04   0.22    -0.44  -0.12  -0.01    -0.01   0.05  -0.28
   4   1     0.04  -0.50   0.26    -0.14   0.14   0.03     0.40   0.09  -0.10
   5   1    -0.02   0.37   0.42    -0.14   0.14   0.03    -0.40  -0.05  -0.10
   6   1    -0.01   0.06  -0.35     0.25   0.31   0.05    -0.01   0.04  -0.21
   7   1    -0.01   0.04  -0.23     0.16  -0.02  -0.01    -0.01   0.06  -0.36
   8   1     0.01  -0.03   0.19    -0.30  -0.22  -0.03     0.01  -0.10   0.53
                      4                      5                      6
                        a                      a                      a 
 Frequencies --   927.1144               952.0040              1009.5243
 Red. masses --     5.0968                 4.2853                 3.3806
 Frc consts  --     0.0000                 0.0000                 0.0000
 IR Inten    --   189.5474                50.4976                36.6199
 Raman Activ --     0.0000                 0.0000                 0.0000
 Depolar     --     0.0000                 0.0000                 0.0000
 Atom AN      X      Y      Z        X      Y      Z        X      Y      Z
   1   6     0.01  -0.06   0.36     0.11   0.46   0.07     0.01  -0.03   0.18
   2   6    -0.01   0.07  -0.38    -0.10  -0.03   0.00    -0.01   0.08  -0.42
   3   8     0.01  -0.05   0.25    -0.07  -0.20  -0.04    -0.00   0.01  -0.04
   4   1     0.39   0.14  -0.07     0.44  -0.02   0.02     0.06   0.08  -0.02
   5   1    -0.38  -0.11  -0.09     0.45  -0.00  -0.05    -0.06  -0.06  -0.04
   6   1    -0.01   0.03  -0.16    -0.31  -0.25  -0.03    -0.00   0.02  -0.13
   7   1    -0.01   0.01  -0.09    -0.18  -0.18  -0.03     0.02  -0.13   0.71
   8   1    -0.02   0.09  -0.51    -0.19  -0.23  -0.03     0.01  -0.09   0.46
                      7                      8                      9
                        a                      a                      a 
 Frequencies --  1073.7169              1201.9505              1273.4585
 Red. masses --     6.2044                 5.5843                 2.5913
 Frc consts  --     0.0000                 0.0000                 0.0000
 IR Inten    --    95.9516               114.3314               196.0305
 Raman Activ --     0.0000                 0.0000                 0.0000
 Depolar     --     0.0000                 0.0000                 0.0000
 Atom AN      X      Y      Z        X      Y      Z        X      Y      Z
   1   6     0.36   0.13   0.01     0.41  -0.13  -0.04    -0.16  -0.24  -0.04
   2   6    -0.29  -0.04   0.00    -0.40   0.20   0.05    -0.10   0.12   0.02
   3   8    -0.31  -0.28  -0.04     0.12   0.02   0.00     0.07  -0.14  -0.03
   4   1     0.14   0.05  -0.01    -0.10   0.02  -0.00     0.23   0.47  -0.31
   5   1     0.14   0.04   0.01    -0.10   0.01   0.01     0.25   0.33   0.44
   6   1     0.21   0.14   0.02     0.34   0.20   0.03     0.11   0.11   0.02
   7   1     0.01   0.09   0.02    -0.44  -0.32  -0.05     0.14   0.23   0.04
   8   1     0.48   0.49   0.08    -0.24  -0.25  -0.04    -0.11  -0.15  -0.02
                     10                     11                     12
                        a                      a                      a 
 Frequencies --  1285.9619              1334.1640              1404.6442
 Red. masses --     3.8761                 1.6802                 3.8818
 Frc consts  --     0.0000                 0.0000                 0.0000
 IR Inten    --   127.6240                48.2138                51.7872
 Raman Activ --     0.0000                 0.0000                 0.0000
 Depolar     --     0.0000                 0.0000                 0.0000
 Atom AN      X      Y      Z        X      Y      Z        X      Y      Z
   1   6    -0.10  -0.13  -0.02     0.01  -0.04   0.23     0.38   0.06  -0.00
   2   6     0.36  -0.08  -0.03     0.00  -0.01   0.06    -0.02   0.19   0.03
   3   8    -0.17   0.19   0.04    -0.00  -0.00   0.00    -0.05  -0.23  -0.04
   4   1     0.02   0.23  -0.14    -0.36   0.23  -0.03    -0.36   0.24  -0.04
   5   1     0.03   0.16   0.22     0.35  -0.19  -0.12    -0.36   0.21   0.14
   6   1    -0.08  -0.09  -0.01    -0.03   0.13  -0.74    -0.39  -0.46  -0.07
   7   1    -0.37  -0.59  -0.10    -0.00   0.02  -0.13     0.03   0.09   0.02
   8   1     0.18   0.26   0.04    -0.00   0.00  -0.02     0.01  -0.03  -0.01
                     13                     14                     15
                        a                      a                      a 
 Frequencies --  1591.6763              2906.3832              2946.1323
 Red. masses --    12.2677                 1.8757                 1.7652
 Frc consts  --     0.0000                 0.0000                 0.0000
 IR Inten    --   455.9098                65.4670                38.0007
 Raman Activ --     0.0000                 0.0000                 0.0000
 Depolar     --     0.0000                 0.0000                 0.0000
 Atom AN      X      Y      Z        X      Y      Z        X      Y      Z
   1   6    -0.19  -0.07  -0.01     0.01  -0.05   0.28    -0.01  -0.11  -0.02
   2   6     0.36   0.69   0.11     0.00  -0.00   0.01    -0.19   0.14   0.03
   3   8    -0.16  -0.49  -0.08    -0.00  -0.00   0.00     0.01   0.00   0.00
   4   1     0.02  -0.13   0.06    -0.10  -0.34  -0.60     0.04   0.13   0.29
   5   1     0.01  -0.10  -0.10     0.07   0.51  -0.42     0.03   0.24  -0.23
   6   1     0.08   0.11   0.02     0.00  -0.00   0.03    -0.02   0.01   0.00
   7   1    -0.10  -0.05  -0.01    -0.00   0.00  -0.00     0.65  -0.53  -0.11
   8   1     0.03  -0.03  -0.01     0.00  -0.00   0.00    -0.03   0.02   0.00
                     16                     17                     18
                        a                      a                      a 
 Frequencies --  2961.8311              3040.5260              3201.6630
 Red. masses --     1.5931                 1.8052                 1.8392
 Frc consts  --     0.0000                 0.0000                 0.0000
 IR Inten    --    49.6199                 2.5647               122.7059
 Raman Activ --     0.0000                 0.0000                 0.0000
 Depolar     --     0.0000                 0.0000                 0.0000
 Atom AN      X      Y      Z        X      Y      Z        X      Y      Z
   1   6    -0.06  -0.18  -0.03    -0.18   0.19   0.04     0.00   0.01   0.00
   2   6     0.09  -0.10  -0.02    -0.02   0.02   0.00     0.00  -0.02  -0.00
   3   8     0.01   0.01   0.00     0.00  -0.00  -0.00     0.17  -0.16  -0.03
   4   1     0.08   0.26   0.53    -0.02  -0.00  -0.04    -0.00  -0.01  -0.01
   5   1     0.05   0.45  -0.42    -0.02  -0.02   0.04    -0.00  -0.01   0.01
   6   1     0.07  -0.09  -0.02     0.69  -0.65  -0.14    -0.01   0.00   0.00
   7   1    -0.35   0.29   0.06     0.06  -0.05  -0.01    -0.02   0.01   0.00
   8   1    -0.00   0.01   0.00    -0.01   0.00   0.00    -0.68   0.67   0.14
