      -----------------------------------------------------------      
     |                   =====================                   |     
     |                           x T B                           |     
     |                   =====================                   |     
     |                         S. Grimme                         |     
     |          Mulliken Center for Theoretical Chemistry        |     
     |                    University of Bonn                     |     
      -----------------------------------------------------------      

   * xtb version 6.7.1 (edcfbbe) compiled by 'conda@afd1a870197c' on 2025-04-11

   xtb is free software: you can redistribute it and/or modify it under
   the terms of the GNU Lesser General Public License as published by
   the Free Software Foundation, either version 3 of the License, or
   (at your option) any later version.
   
   xtb is distributed in the hope that it will be useful,
   but WITHOUT ANY WARRANTY; without even the implied warranty of
   MERCHANTABILITY or FITNESS FOR A PARTICULAR PURPOSE.  See the
   GNU Lesser General Public License for more details.
   
   Cite this work as:
   * C. Bannwarth, E. Caldeweyher, S. Ehlert, A. Hansen, P. Pracht,
     J. Seibert, S. Spicher, S. Grimme, WIREs Comput. Mol. Sci., 2020, 11,
     e01493. DOI: 10.1002/wcms.1493
   
   for GFN2-xTB:
   * C. Bannwarth, S. Ehlert and S. Grimme., J. Chem. Theory Comput., 2019,
     15, 1652-1671. DOI: 10.1021/acs.jctc.8b01176
   for GFN1-xTB:
   * S. Grimme, C. Bannwarth, P. Shushkov, J. Chem. Theory Comput., 2017,
     13, 1989-2009. DOI: 10.1021/acs.jctc.7b00118
   for GFN0-xTB:
   * P. Pracht, E. Caldeweyher, S. Ehlert, S. Grimme, ChemRxiv, 2019, preprint.
     DOI: 10.26434/chemrxiv.8326202.v1
   for GFN-FF:
   * S. Spicher and S. Grimme, Angew. Chem. Int. Ed., 2020, 59, 15665-15673.
     DOI: 10.1002/anie.202004239
   
   for ALPB and GBSA implicit solvation:
   * S. Ehlert, M. Stahn, S. Spicher, S. Grimme, J. Chem. Theory Comput.,
     2021, 17, 4250-4261. DOI: 10.1021/acs.jctc.1c00471
   
   for ddCOSMO and CPCM-X implicit solvation:
   * M. Stahn, S. Ehlert, S. Grimme, J. Phys. Chem. A,
     2023, XX, XXXX-XXXX. DOI: 10.1021/acs.jpca.3c04382
   
   for DFT-D4:
   * E. Caldeweyher, C. Bannwarth and S. Grimme, J. Chem. Phys., 2017,
     147, 034112. DOI: 10.1063/1.4993215
   * E. Caldeweyher, S. Ehlert, A. Hansen, H. Neugebauer, S. Spicher,
     C. Bannwarth and S. Grimme, J. Chem. Phys., 2019, 150, 154122.
     DOI: 10.1063/1.5090222
   * E. Caldeweyher, J.-M. Mewes, S. Ehlert and S. Grimme, Phys. Chem. Chem. Phys.
     2020, 22, 8499-8512. DOI: 10.1039/D0CP00502A
   
   for sTDA-xTB:
   * S. Grimme and C. Bannwarth, J. Chem. Phys., 2016, 145, 054103.
     DOI: 10.1063/1.4959605
   
   in the mass-spec context:
   * V. Asgeirsson, C. Bauer and S. Grimme, Chem. Sci., 2017, 8, 4879.
     DOI: 10.1039/c7sc00601b
   * J. Koopman and S. Grimme, ACS Omega 2019, 4, 12, 15120-15133.
     DOI: 10.1021/acsomega.9b02011
   
   for metadynamics refer to:
   * S. Grimme, J. Chem. Theory Comput., 2019, 155, 2847-2862
     DOI: 10.1021/acs.jctc.9b00143
   
   for SPH calculations refer to:
   * S. Spicher and S. Grimme, J. Chem. Theory Comput., 2021, 17, 1701-1714
     DOI: 10.1021/acs.jctc.0c01306
   
   for ONIOM refer to:
   * C. Plett, A. Katbashev, S. Ehlert, S. Grimme, M. Bursch,
     Phys. Chem. Chem. Phys., 2023, 25, 17860-17868. DOI: 10.1039/D3CP02178E
   
   for DIPRO refer to:
   * J. Kohn, N. Gildemeister, S. Grimme, D. Fazzi, A. Hansen,
     J. Chem. Phys., 2023, just accepted.
   
   for PTB refer to:
   * S. Grimme, M. Mueller, A. Hansen, J. Chem. Phys., 2023, 158, 124111.
     DOI: 10.1063/5.0137838
   
   with help from (in alphabetical order)
   P. Atkinson, C. Bannwarth, F. Bohle, G. Brandenburg, E. Caldeweyher
   M. Checinski, S. Dohm, S. Ehlert, S. Ehrlich, I. Gerasimov, C. Hölzer
   A. Katbashev, J. Kohn, J. Koopman, C. Lavigne, S. Lehtola, F. März, M. Müller,
   F. Musil, H. Neugebauer, J. Pisarek, C. Plett, P. Pracht, F. Pultar,
   J. Seibert, P. Shushkov, S. Spicher, M. Stahn, M. Steiner, T. Strunk,
   J. Stückrath, T. Rose, and J. Unsleber
   
 * started run on 2025/06/07 at 21:26:37.861     
   ID    Z sym.   atoms
    1    6 C      1, 2
    2    8 O      3
    3    1 H      4-8

           -------------------------------------------------
          |                Calculation Setup                |
           -------------------------------------------------

          program call               : xtb xtbin.xyz --bhess --gfn2 --etemp 300
          coordinate file            : xtbin.xyz
          omp threads                :                     1


           -------------------------------------------------
          |                 G F N 2 - x T B                 |
           -------------------------------------------------

        Reference                      10.1021/acs.jctc.8b01176
      * Hamiltonian:
        H0-scaling (s, p, d)           1.850000    2.230000    2.230000
        zeta-weighting                 0.500000
      * Dispersion:
        s8                             2.700000
        a1                             0.520000
        a2                             5.000000
        s9                             5.000000
      * Repulsion:
        kExp                           1.500000    1.000000
        rExp                           1.000000
      * Coulomb:
        alpha                          2.000000
        third order                    shell-resolved
        anisotropic                    true
        a3                             3.000000
        a5                             4.000000
        cn-shift                       1.200000
        cn-exp                         4.000000
        max-rad                        5.000000


          ...................................................
          :                      SETUP                      :
          :.................................................:
          :  # basis functions                  17          :
          :  # atomic orbitals                  17          :
          :  # shells                           11          :
          :  # electrons                        18          :
          :  max. iterations                   250          :
          :  Hamiltonian                  GFN2-xTB          :
          :  restarted?                      false          :
          :  GBSA solvation                  false          :
          :  PC potential                    false          :
          :  electronic temp.          300.0000000     K    :
          :  accuracy                    1.0000000          :
          :  -> integral cutoff          0.2500000E+02      :
          :  -> integral neglect         0.1000000E-07      :
          :  -> SCF convergence          0.1000000E-05 Eh   :
          :  -> wf. convergence          0.1000000E-03 e    :
          :  Broyden damping             0.4000000          :
          :  net charge                          1          :
          :  unpaired electrons                  0          :
          ...................................................

 iter      E             dE          RMSdq      gap      omega  full diag
   1    -10.5014032 -0.105014E+02  0.486E+00    5.24       0.0  T
   2    -10.5302874 -0.288843E-01  0.280E+00    4.35       1.0  T
   3    -10.5309926 -0.705136E-03  0.145E+00    4.50       1.0  T
   4    -10.5325526 -0.156005E-02  0.268E-01    4.16       1.0  T
   5    -10.5328265 -0.273882E-03  0.101E-01    4.27       1.0  T
   6    -10.5328404 -0.139464E-04  0.346E-02    4.26       1.0  T
   7    -10.5328407 -0.290455E-06  0.663E-03    4.26       5.3  T
   8    -10.5328408 -0.659227E-07  0.367E-03    4.27       9.6  T
   9    -10.5328409 -0.559932E-07  0.447E-04    4.26      79.0  T
  10    -10.5328409 -0.814618E-09  0.134E-04    4.26     263.7  T

   *** convergence criteria satisfied after 10 iterations ***

         #    Occupation            Energy/Eh            Energy/eV
      -------------------------------------------------------------
         1        2.0000           -1.0101781             -27.4883
       ...           ...                  ...                  ...
         3        2.0000           -0.8932004             -24.3052
         4        2.0000           -0.8278612             -22.5272
         5        2.0000           -0.8260551             -22.4781
         6        2.0000           -0.7872342             -21.4217
         7        2.0000           -0.7178165             -19.5328
         8        2.0000           -0.7161303             -19.4869
         9        2.0000           -0.7035735             -19.1452 (HOMO)
        10                         -0.5468959             -14.8818 (LUMO)
        11                         -0.1606662              -4.3719
        12                         -0.1152654              -3.1365
        13                         -0.0554165              -1.5080
        14                         -0.0325893              -0.8868
       ...                                ...                  ...
        17                          0.2466213               6.7109
      -------------------------------------------------------------
                  HL-Gap            0.1566776 Eh            4.2634 eV
             Fermi-level           -0.6252347 Eh          -17.0135 eV

 SCC (total)                   0 d,  0 h,  0 min,  0.005 sec
 SCC setup                      ...        0 min,  0.000 sec (  2.704%)
 Dispersion                     ...        0 min,  0.000 sec (  0.853%)
 classical contributions        ...        0 min,  0.000 sec (  0.441%)
 integral evaluation            ...        0 min,  0.001 sec ( 12.275%)
 iterations                     ...        0 min,  0.003 sec ( 54.681%)
 molecular gradient             ...        0 min,  0.001 sec ( 26.015%)
 printout                       ...        0 min,  0.000 sec (  2.716%)

         :::::::::::::::::::::::::::::::::::::::::::::::::::::
         ::                     SUMMARY                     ::
         :::::::::::::::::::::::::::::::::::::::::::::::::::::
         :: total energy             -10.401831922864 Eh    ::
         :: gradient norm              0.021358532912 Eh/a0 ::
         :: HOMO-LUMO gap              4.263414431067 eV    ::
         ::.................................................::
         :: SCC energy               -10.532840536938 Eh    ::
         :: -> isotropic ES            0.124912816058 Eh    ::
         :: -> anisotropic ES         -0.011533904248 Eh    ::
         :: -> anisotropic XC          0.006162939914 Eh    ::
         :: -> dispersion             -0.001780761290 Eh    ::
         :: repulsion energy           0.131008614075 Eh    ::
         :: add. restraining           0.000000000000 Eh    ::
         :: total charge               1.000000000000 e     ::
         :::::::::::::::::::::::::::::::::::::::::::::::::::::

metadynamics with 1 initial structures loaded
           -------------------------------------------------
          |           Optimal kpush determination           |
           -------------------------------------------------
      ----------------------------------------------------------- 
     |                   =====================                   |
     |                        A N C O P T                        |
     |                   =====================                   |
     |               Approximate Normal Coordinate               |
     |                Rational Function Optimizer                |
      ----------------------------------------------------------- 
target rmsd / Å         0.100000
unbiased initial rmsd   0.032131

iter. min.        max.        rmsd       kpush
final kpush: -0.000000
           -------------------------------------------------
          |            Biased Numerical Hessian             |
           -------------------------------------------------
kpush                :  -0.00000
alpha                :   1.00000
step length          :   0.00500
SCC accuracy         :   0.30000
Hessian scale factor :   1.00000
frozen atoms in %    :   0.00000    0
RMS gradient         :   0.00033
estimated CPU  time      0.00 min
estimated wall time      0.00 min

writing file <hessian>.

 projected vibrational frequencies (cm⁻¹)
eigval :       -0.00    -0.00    -0.00     0.00     0.00     0.00
eigval :      188.58   470.34   651.39   927.11   952.00  1009.52
eigval :     1073.72  1201.95  1273.46  1285.96  1334.16  1404.64
eigval :     1591.68  2906.38  2946.13  2961.83  3040.53  3201.66
           -------------------------------------------------
          |                Property Printout                |
           -------------------------------------------------

    * Orbital Energies and Occupations

         #    Occupation            Energy/Eh            Energy/eV
      -------------------------------------------------------------
         1        2.0000           -1.0077862             -27.4233
         2        2.0000           -0.9186353             -24.9973
         3        2.0000           -0.8903904             -24.2288
         4        2.0000           -0.8261421             -22.4805
         5        2.0000           -0.8247984             -22.4439
         6        2.0000           -0.7857147             -21.3804
         7        2.0000           -0.7172845             -19.5183
         8        2.0000           -0.7123911             -19.3851
         9        2.0000           -0.6993296             -19.0297 (HOMO)
        10                         -0.5429115             -14.7734 (LUMO)
        11                         -0.1782557              -4.8506
        12                         -0.1054684              -2.8699
        13                         -0.0581842              -1.5833
        14                         -0.0390506              -1.0626
        15                         -0.0306228              -0.8333
        16                          0.0756616               2.0589
        17                          0.2711073               7.3772
      -------------------------------------------------------------
                  HL-Gap            0.1564181 Eh            4.2564 eV
             Fermi-level           -0.6211206 Eh          -16.9016 eV

     #   Z          covCN         q      C6AA      α(0)
     1   6 C        3.752    -0.169    23.855     6.965
     2   6 C        2.759     0.211    23.532     7.944
     3   8 O        1.658    -0.133    16.325     5.454
     4   1 H        0.923     0.193     1.134     1.665
     5   1 H        0.924     0.193     1.137     1.667
     6   1 H        0.925     0.133     1.514     1.924
     7   1 H        0.924     0.178     1.219     1.726
     8   1 H        0.802     0.395     0.495     1.105

 Mol. C6AA /au·bohr⁶  :        356.817929
 Mol. C8AA /au·bohr⁸  :       7785.360160
 Mol. α(0) /au        :         28.451678


Wiberg/Mayer (AO) data.
largest (>0.10) Wiberg bond orders for each atom

 ---------------------------------------------------------------------------
     #   Z sym  total        # sym  WBO       # sym  WBO       # sym  WBO
 ---------------------------------------------------------------------------
     1   6 C    3.967 --     2 C    1.203     6 H    0.962     5 H    0.861
                             4 H    0.860
     2   6 C    3.815 --     3 O    1.584     1 C    1.203     7 H    0.919
     3   8 O    2.544 --     2 C    1.584     8 H    0.805
     4   1 H    0.963 --     1 C    0.860
     5   1 H    0.963 --     1 C    0.861
     6   1 H    0.982 --     1 C    0.962
     7   1 H    0.968 --     2 C    0.919
     8   1 H    0.844 --     3 O    0.805
 ---------------------------------------------------------------------------

Topologies differ in total number of bonds
Writing topology from bond orders to xtbtopo.mol

molecular dipole:
                 x           y           z       tot (Debye)
 q only:       -2.852      -4.849       0.011
   full:       -2.961      -4.783       0.026      14.297
molecular quadrupole (traceless):
                xx          xy          yy          xz          yz          zz
 q only:       -4.322      21.497      23.628       0.010       1.356     -19.306
  q+dip:       -3.801      20.635      23.115      -0.293       1.379     -19.314
   full:       -4.332      20.839      22.838      -0.217       1.168     -18.506
Refinement of some symmetry elements was terminated before convergence was reached.
Some symmetry elements may remain unidentified.
Molecule has the following symmetry elements: (sigma) 
It seems to be the Cs point group

           -------------------------------------------------
          |                Geometry Summary                 |
           -------------------------------------------------

      molecular mass/u    :       45.0605805
   center of mass at/Å    :       -1.1887184      -2.4195518       0.0239379
  moments of inertia/u·Å² :        0.9772914E+01   0.5134306E+02   0.5817655E+02
rotational constants/cm⁻¹ :        0.1724934E+01   0.3283332E+00   0.2897668E+00

 * 7 selected distances

     #   Z          #   Z                                           value/Å
     1   6 C        2   6 C                                       1.4365726 (max)
     2   6 C        3   8 O                                       1.2482821
     1   6 C        4   1 H                                       1.0980856
     1   6 C        5   1 H                                       1.0978614
     1   6 C        6   1 H                                       1.0895287
     2   6 C        7   1 H                                       1.0954609
     3   8 O        8   1 H                                       0.9850151 (min)

 * 4 distinct bonds (by element types)

   Z      Z             #   av. dist./Å        max./Å        min./Å
   1 H    6 C           4     1.0952341     1.0980856     1.0895287
   6 C    6 C           1     1.4365726     1.4365726     1.4365726
   1 H    8 O           1     0.9850151     0.9850151     0.9850151
   6 C    8 O           1     1.2482821     1.2482821     1.2482821

           -------------------------------------------------
          |               Frequency Printout                |
           -------------------------------------------------
 projected vibrational frequencies (cm⁻¹)
eigval :       -0.00    -0.00    -0.00     0.00     0.00     0.00
eigval :      188.58   470.34   651.39   927.11   952.00  1009.52
eigval :     1073.72  1201.95  1273.46  1285.96  1334.16  1404.64
eigval :     1591.68  2906.38  2946.13  2961.83  3040.53  3201.66
 reduced masses (amu)
   1:  9.68   2: 10.98   3: 11.40   4: 11.42   5: 12.80   6:  6.66   7:  2.84   8:  8.41
   9:  3.27  10:  5.10  11:  4.29  12:  3.38  13:  6.20  14:  5.58  15:  2.59  16:  3.88
  17:  1.68  18:  3.88  19: 12.27  20:  1.88  21:  1.77  22:  1.59  23:  1.81  24:  1.84
 IR intensities (km·mol⁻¹)
   1: 17.75   2: 11.14   3:  9.17   4: 21.15   5:  4.59   6:  9.49   7: 30.87   8:  6.16
   9: 22.92  10:189.55  11: 50.50  12: 36.62  13: 95.95  14:114.33  15:196.03  16:127.62
  17: 48.21  18: 51.79  19:455.91  20: 65.47  21: 38.00  22: 49.62  23:  2.56  24:122.71
 Raman intensities (Ä⁴*amu⁻¹)
   1:  0.00   2:  0.00   3:  0.00   4:  0.00   5:  0.00   6:  0.00   7:  0.00   8:  0.00
   9:  0.00  10:  0.00  11:  0.00  12:  0.00  13:  0.00  14:  0.00  15:  0.00  16:  0.00
  17:  0.00  18:  0.00  19:  0.00  20:  0.00  21:  0.00  22:  0.00  23:  0.00  24:  0.00
 output can be read by thermo (or use thermo option).
 writing <g98.out> molden fake output.
 recommended (thermochemical) frequency scaling factor: 1.0
           -------------------------------------------------
          |             Thermodynamic Functions             |
           -------------------------------------------------

cs  symmetry found (for desy threshold:  0.10E+00) used in thermo

          ...................................................
          :                      SETUP                      :
          :.................................................:
          :  # frequencies                          18      :
          :  # imaginary freq.                       0      :
          :  linear?                             false      :
          :  only rotor calc.                    false      :
          :  symmetry                               cs      :
          :  rotational number                       1      :
          :  scaling factor                  1.0000000      :
          :  rotor cutoff                   50.0000000 cm⁻¹ :
          :  imag. cutoff                  -20.0000000 cm⁻¹ :
          :.................................................:

    mode    ω/cm⁻¹     T·S(HO)/kcal·mol⁻¹    T·S(FR)/kcal·mol⁻¹   T·S(vib)
   ------------------------------------------------------------------------
       1    188.58    -0.66837 ( 99.51%)    -0.66262 (  0.49%)    -0.66834
   ------------------------------------------------------------------------

   temp. (K)  partition function   enthalpy   heat capacity  entropy
                                   cal/mol     cal/K/mol   cal/K/mol   J/K/mol
 298.15  VIB   2.04                  738.707      6.471      3.896
         ROT  0.131E+05              888.752      2.981     21.814
         INT  0.266E+05             1627.460      9.452     25.709
         TR   0.293E+27             1481.254      4.968     37.325
         TOT                        3108.7135    14.4202    63.0341   263.7345

       T/K    H(0)-H(T)+PV         H(T)/Eh          T*S/Eh         G(T)/Eh
   ------------------------------------------------------------------------
    298.15    0.495405E-02    0.697020E-01    0.299495E-01    0.397525E-01
   ------------------------------------------------------------------------

         :::::::::::::::::::::::::::::::::::::::::::::::::::::
         ::                  THERMODYNAMIC                  ::
         :::::::::::::::::::::::::::::::::::::::::::::::::::::
         :: total free energy         -10.362883209453 Eh   ::
         ::.................................................::
         :: total energy              -10.402635683829 Eh   ::
         :: zero point energy           0.064747941436 Eh   ::
         :: G(RRHO) w/o ZPVE           -0.024995467059 Eh   ::
         :: G(RRHO) contrib.            0.039752474377 Eh   ::
         :::::::::::::::::::::::::::::::::::::::::::::::::::::

optimized geometry written to: xtbopt.xyz


           -------------------------------------------------
          | TOTAL ENERGY              -10.402635683829 Eh   |
          | TOTAL ENTHALPY            -10.332933692060 Eh   |
          | TOTAL FREE ENERGY         -10.362883209453 Eh   |
          | GRADIENT NORM               0.000331815888 Eh/α |
          | HOMO-LUMO GAP               4.256353021713 eV   |
           -------------------------------------------------

------------------------------------------------------------------------
 * finished run on 2025/06/07 at 21:26:38.017     
------------------------------------------------------------------------
 total:
 * wall-time:     0 d,  0 h,  0 min,  0.155 sec
 *  cpu-time:     0 d,  0 h,  0 min,  0.155 sec
 * ratio c/w:     1.000 speedup
 SCF:
 * wall-time:     0 d,  0 h,  0 min,  0.005 sec
 *  cpu-time:     0 d,  0 h,  0 min,  0.005 sec
 * ratio c/w:     1.000 speedup
 analytical hessian:
 * wall-time:     0 d,  0 h,  0 min,  0.118 sec
 *  cpu-time:     0 d,  0 h,  0 min,  0.118 sec
 * ratio c/w:     1.000 speedup

