8
 energy: -10.401831922886 gnorm: 0.021358117214 xtb: 6.7.1 (edcfbbe)
C           -2.19685349374577       -3.19796827890147       -0.08797581216678
C           -0.84381691558544       -2.69382658530144       -0.03395963655862
O           -0.51651701871083       -1.50211750168649        0.17085229470673
H           -2.32847436091039       -3.68048124843117       -1.06208577493385
H           -2.27829247486086       -4.00895168920294        0.64258380689134
H           -2.96048100917334       -2.44365604510700        0.07829936983702
H            0.01305137232905       -3.35068798585826       -0.17759838647810
H           -1.25408423934241       -0.87976741551123        0.30416287870226
8
 energy: -10.402448974559 gnorm: 0.010256772393 xtb: 6.7.1 (edcfbbe)
C           -2.18925412962413       -3.19990809973152       -0.08879424311703
C           -0.84484146465855       -2.68470982197073       -0.03320766201395
O           -0.51203935966879       -1.49557651695527        0.17207355710257
H           -2.33701080086829       -3.69751122079437       -1.05498537871931
H           -2.28671975547445       -4.02119660627727        0.63093837576832
H           -2.96078170171002       -2.45063136524626        0.07673511581916
H            0.00673253450018       -3.35458391179084       -0.17778304341736
H           -1.24155346249595       -0.85333920723376        0.30930201857760
8
 energy: -10.402614413236 gnorm: 0.003177953968 xtb: 6.7.1 (edcfbbe)
C           -2.18386901091412       -3.20086338711643       -0.08925016296561
C           -0.84766917161502       -2.67827765019703       -0.03150782332692
O           -0.51071908039081       -1.49283422624194        0.17314132194828
H           -2.33928902705502       -3.70950419122115       -1.05031214427020
H           -2.28966877678978       -4.02911033228339        0.62381615904480
H           -2.96442459563611       -2.45795424608598        0.07442500564954
H           -0.00151074291903       -3.35856581591682       -0.17969296845322
H           -1.22831773468009       -0.83034690093725        0.31365935237333
8
 energy: -10.402626767764 gnorm: 0.002212071345 xtb: 6.7.1 (edcfbbe)
C           -2.18433932329775       -3.20129647568309       -0.08961851743235
C           -0.84872967611173       -2.67776304085961       -0.03231719782788
O           -0.51140931367579       -1.49322044396003        0.17321802422675
H           -2.33848041187206       -3.71056780695758       -1.05049617625885
H           -2.28830530688318       -4.02898241986426        0.62434152036967
H           -2.96656099461830       -2.46006810826005        0.07363826749954
H           -0.00314584403934       -3.35894579699143       -0.17954724836221
H           -1.22449726950184       -0.82661265742395        0.31506006778533
8
 energy: -10.402635461047 gnorm: 0.000527391704 xtb: 6.7.1 (edcfbbe)
C           -2.18588243213439       -3.20243943833770       -0.08998388182038
C           -0.85025055198537       -2.67774653840773       -0.03180531834962
O           -0.51264542922770       -1.49393053768289        0.17388454369925
H           -2.33651317991954       -3.71197975761195       -1.05100242853862
H           -2.28699992463063       -4.02853769961378        0.62607925139902
H           -2.96970284338470       -2.46298335453887        0.07179762784095
H           -0.00499233518480       -3.35844612977076       -0.18128962507607
H           -1.21848144353286       -0.82139329403632        0.31659857084547
8
 energy: -10.402635683806 gnorm: 0.000332602250 xtb: 6.7.1 (edcfbbe)
C           -2.18632442741890       -3.20274603334959       -0.09043690959652
C           -0.85037147902721       -2.67767473670139       -0.03325034222360
O           -0.51282293429196       -1.49387596674520        0.17384700668968
H           -2.33710940194677       -3.71295393957220       -1.05103233311255
H           -2.28680644094855       -4.02800646436336        0.62660421864001
H           -2.96953991142808       -2.46284319564912        0.07139565299495
H           -0.00456210538020       -3.35805565333444       -0.18063674827173
H           -1.21793143955832       -0.82130076028470        0.31778819487976
