
                                 *****************
                                 * O   R   C   A *
                                 *****************

                                            #,                                       
                                            ###                                      
                                            ####                                     
                                            #####                                    
                                            ######                                   
                                           ########,                                 
                                     ,,################,,,,,                         
                               ,,#################################,,                 
                          ,,##########################################,,             
                       ,#########################################, ''#####,          
                    ,#############################################,,   '####,        
                  ,##################################################,,,,####,       
                ,###########''''           ''''###############################       
              ,#####''   ,,,,##########,,,,          '''####'''          '####       
            ,##' ,,,,###########################,,,                        '##       
           ' ,,###''''                  '''############,,,                           
         ,,##''                                '''############,,,,        ,,,,,,###''
      ,#''                                            '''#######################'''  
     '                                                          ''''####''''         
             ,#######,   #######,   ,#######,      ##                                
            ,#'     '#,  ##    ##  ,#'     '#,    #''#        ,####,   ,####,        
            ##       ##  ##   ,#'  ##            #'  '#       #'       #'  '#        
            ##       ##  #######   ##           ,######,      #####,   #    #        
            '#,     ,#'  ##    ##  '#,     ,#' ,#      #,     #,   #   #,  ,#        
             '#######'   ##     ##  '#######'  #'      '#     '####' # '####'        



                #########################################################
                #                        -***-                          #
                #          Department of theory and spectroscopy        #
                #                                                       #
                #                      Frank Neese                      #
                #                                                       #
                #     Directorship, Architecture, Infrastructure        #
                #                    SHARK, DRIVERS                     #
                #        Core code/Algorithms in most modules           #
                #                                                       #
                #        Max Planck Institute fuer Kohlenforschung      #
                #                Kaiser Wilhelm Platz 1                 #
                #                 D-45470 Muelheim/Ruhr                 #
                #                      Germany                          #
                #                                                       #
                #                  All rights reserved                  #
                #                        -***-                          #
                #########################################################


                         Program Version 6.0.1  -  RELEASE   -


 With contributions from (in alphabetic order):
[Max-Planck-Institut fuer Kohlenforschung]                               
  Daniel Aravena         : Magnetic Suceptibility                        
  Michael Atanasov       : Ab Initio Ligand Field Theory (pilot matlab implementation)
  Alexander A. Auer      : GIAO ZORA, VPT2 properties, NMR spectrum      
  Ute Becker             : All parallelization in ORCA, NUMFREQ, NUMCALC 
  Giovanni Bistoni       : ED, misc. LED, open-shell LED, HFLD           
  Martin Brehm           : Molecular dynamics                            
  Dmytro Bykov           : pre 5.0 version of the SCF Hessian            
  Marcos Casanova-Páez   : Triplet and SCS-CIS(D). UHF-(DLPNO)-IP/EA/STEOM-CCSD. UHF-CVS-IP/STEOM-CCSD   
  Vijay G. Chilkuri      : MRCI spin determinant printing, contributions to CSF-ICE 
  Pauline Colinet        : FMM embedding                                 
  Dipayan Datta          : RHF DLPNO-CCSD density                        
  Achintya Kumar Dutta   : EOM-CC, STEOM-CC                              
  Nicolas Foglia         : Exact transition moments, OPA infrastructure, MCD improvements    
  Dmitry Ganyushin       : Spin-Orbit,Spin-Spin,Magnetic field MRCI      
  Miquel Garcia-Rates    : C-PCM and meta-GGA Hessian, CCSD/C-PCM, Gaussian charge scheme 
  Tiago L. C. Gouveia    : GS-ROHF, GS-ROCIS                             
  Yang Guo               : DLPNO-NEVPT2, F12-NEVPT2, CIM, IAO-localization        
  Andreas Hansen         : Spin unrestricted coupled pair/coupled cluster methods 
  Ingolf Harden          : AUTO-CI MPn and infrastructure                
  Benjamin Helmich-Paris : MC-RPA, TRAH-(SCF,CASSCF), AVAS, COSX integrals, SCF dyn. polar. 
  Lee Huntington         : MR-EOM, pCC                                   
  Robert Izsak           : Overlap fitted RIJCOSX, COSX-SCS-MP3, EOM     
  Riya Kayal             : Wick's Theorem for AUTO-CI, AUTO-CI UHF-CCSDT 
  Emily Kempfer          : AUTO-CI, RHF CISDT and CCSDT                  
  Christian Kollmar      : KDIIS, OOCD, Brueckner-CCSD(T), CCSD density, CASPT2, CASPT2-K, improved NEVPT2 
  Axel Koslowski         : Symmetry handling                             
  Simone Kossmann        : meta-GGA functionals, TD-DFT gradient, OOMP2, (MP2 Hessian; deprecated post 5.0) 
  Lucas Lang             : DCDCAS                                        
  Marvin Lechner         : AUTO-CI (C++ implementation), FIC-MRCC        
  Spencer Leger          : CASSCF response                               
  Dagmar Lenk            : GEPOL surface, SMD, ORCA-2-JSON               
  Dimitrios Liakos       : Extrapolation schemes; Compound Job, initial MDCI parallelization 
  Dimitrios Manganas     : Further ROCIS development; embedding schemes. LFT, Crystal Embedding 
  Dimitrios Pantazis     : SARC Basis sets                               
  Anastasios Papadopoulos: AUTO-CI, single reference methods and gradients 
  Taras Petrenko         : pre 6.0 DFT Hessian and TD-DFT gradient, (ASA, deprecated), ECA, 1-Electron XAS/XES, NRVS 
  Peter Pinski           : DLPNO-MP2, DLPNO-MP2 Gradient                 
  Christoph Reimann      : Effective Core Potentials                     
  Marius Retegan         : Local ZFS, SOC                                
  Christoph Riplinger    : Optimizer, TS searches, QM/MM, DLPNO-CCSD(T), (RO)-DLPNO pert. Triples 
  Michael Roemelt        : Original ROCIS implementation                 
  Masaaki Saitow         : Open-shell DLPNO-CCSD energy and density      
  Barbara Sandhoefer     : DKH picture change effects                    
  Kantharuban Sivalingam : CASSCF convergence/infrastructure, NEVPT2 and variants, FIC-MRCI 
  Bernardo de Souza      : ESD, SOC TD-DFT                               
  Georgi L. Stoychev     : AutoAux, RI-MP2 NMR, DLPNO-MP2 response, X2C  
  Van Anh Tran           : RI-MP2 g-tensors                              
  Willem Van den Heuvel  : Paramagnetic NMR                              
  Zikuan Wang            : NOTCH, Electric field optimization            
  Frank Wennmohs         : Technical directorship and infrastructure     
  Hang Xu                : AUTO-CI-Response properties                   
                                                                         
[FACCTs GmbH]                                                            
  Markus Bursch, Miquel Garcia-Rates, Christoph Riplinger, Bernardo de Souza, Georgi L. Stoychev 
                                                                 
  APM, Basis sets (HGBS, AHGBS, def-TZVP (Ac-Lr), def2-XVPD (La-Lu)), CI-OPT, improved COSX, DLPNO-Multilevel,           
  DOCKER, DRACO, updates on ESD, GOAT, IRC, LR-CPCM, MBIS, meta-GGA TD-DFT gradient, ML-optimized integration grids, 
  MM, NACMEs, nearIR, NEB, NEB-TS, NL-DFT gradient (VV10), 2- and 3-layer-ONIOM, interface openCOSMO-RS, QMMM,   
  Crystal-QMMM, SF, symmetry and pop. for TD-DFT, r2SCAN hybrids, SOLVATOR                                   
                                                                         
[Other institutions]                                                     
  V. Asgeirsson          : NEB                                           
  Christoph Bannwarth    : sTDA-DFT, sTD-DFT, PBEh-3c, B97-3c, D3        
  Sebastian Ehlert       : rSCAN, r2SCAN, r2SCAN-3c, D4, dhf basis sets  
  Marvin Friede          : D4 for Fr, Ra, Ac-Lr                          
  Lars Goerigk           : TD-DFT with DH, B97 family of functionals     
  Stefan Grimme          : VdW corrections, initial TS optimization, DFT functionals, gCP, sTDA/sTD-DF 
  Waldemar Hujo          : DFT-NL                                        
  H. Jonsson             : NEB                                           
  Holger Kruse           : gCP                                           
  Marcel Mueller         : wB97X-3c, vDZP basis set                      
  Hagen Neugebauer       : wr2SCAN                                       
  Tobias Risthaus        : range-separated hybrid DFT                    
  Lukas Wittmann         : regularized MP2, r2SCAN double-hybrids, wr2SCAN        
                                                                         
We gratefully acknowledge several colleagues who have allowed us to      
interface, adapt or use parts of their codes:                            
  Ed Valeev, F. Pavosevic, A. Kumar             : LibInt (2-el integral package), F12 methods 
  Garnet Chan, S. Sharma, J. Yang, R. Olivares  : DMRG                   
  Ulf Ekstrom                                   : XCFun DFT Library      
  Mihaly Kallay                                 : mrcc  (arbitrary order and MRCC methods)
  Frank Weinhold                                : gennbo (NPA and NBO analysis)           
  Simon Mueller                                 : openCOSMO-RS                            
  Christopher J. Cramer and Donald G. Truhlar   : smd solvation model                     
  S Lehtola, MJT Oliveira, MAL Marques          : LibXC Library                           
  Liviu Ungur et al                             : ANISO software                          


 Your calculation uses the libint2 library for the computation of 2-el integrals
 For citations please refer to: http://libint.valeyev.net

 Your ORCA version has been built with support for libXC version: 6.2.2
 For citations please refer to: https://libxc.gitlab.io

 This ORCA versions uses:
   CBLAS   interface :  Fast vector & matrix operations
   LAPACKE interface :  Fast linear algebra routines
   SCALAPACK package :  Parallel linear algebra routines
   Shared memory     :  Shared parallel matrices
   BLAS/LAPACK       :  OpenBLAS 0.3.27  USE64BITINT DYNAMIC_ARCH NO_AFFINITY Haswell SINGLE_THREADED
        Core in use  :  Haswell
   Copyright (c) 2011-2014, The OpenBLAS Project


NOTE: MaxCore=8000 MB was set to SCF,MP2,MDCI,CIPSI,MRCI and CIS
      => If you want to overwrite this, your respective input block should be placed after the MaxCore statement


***************************************
The coordinates will be read from file: isomer.xyz
***************************************


Your calculation utilizes the atom-pairwise dispersion correction
based on EEQ partial charges (D4)


================================================================================

cite the ECPs for C  [vDZP-ECP], O  [vDZP-ECP] as follows:
   B-Ne (ecp-2-mwb), Al-Ar (ecp-10-mwb), Ga-Kr (ecp-28-mwb), Y-Cd (ecp-28-mwb), In-Xe (ecp-46-mwb):
     A. Bergner, M. Dolg, W. Küchle, H. Stoll, and H. Preuß, Mol. Phys. 80, 1431 (1993)., T. Leininger, A. Berning, A. Nicklass, H. Stoll, H.-J. Werner, and H.-J.Flad, Chem. Phys. 217, 19 (1997).
   Na-Mg, K-Ca, Rb-Sr, Cs-Ba (CRENBL):
     L. Fernandez Pacios and P. A. Christiansen, J. Chem. Phys. 82, 2664 (1985)., M. M. Hurley, L. F. Pacios, P. A. Christiansen, R. B. Ross, and W. C. Ermler, J. Chem. Phys. 84, 6840 (1986)., L. A. LaJohn, P. A. Christiansen, R. B. Ross, T. Atashroo, and W. C. Ermler, J. Chem. Phys. 87, 2812 (1987)., R. B. Ross, J. M. Powers, T. Atashroo, W. C. Ermler, L. A. LaJohn, and P. A. Christiansen, J. Chem. Phys. 93, 6654 (1990). 
   Sc-Zn (ecp-10-mdf):
     M. Dolg, U. Wedig, H. Stoll, and H. Preuss, J. Chem. Phys. 86, 866 (1986). 
   Y-Cd (ecp-28-mwb), Hf-Hg (ecp-60-mwb):
     D. Andrae, U. Häußermann, M. Dolg, H. Stoll, and H. Preuß, Theor. Chim. Acta 77, 123 (1990). 
   La (ecp-46-mwb):
     M. Dolg, H. Stoll, and H. Preuss, J. Chem. Phys. 90, 1730 (1989)., M. Dolg, H. Stoll, and H. Preuss, Theor. Chim. Acta 85, 441 (1993).
   Ce-Lu (SBKJC-ecp):
     T. R. Cundari and W. J. Stevens, J. Chem. Phys. 98, 5555 (1993).
   Tl-Rn (ecp-78-mwb):
     W. Küchle, M. Dolg, H. Stoll, and H. Preuss, Mol. Phys. 74, 1245 (1991).

ECP parameters for C  [vDZP-ECP], O  [vDZP-ECP] have been obtained from:
MM, AH, SG, J. Chem. Phys. 158, 014103 (2023), 10.1063/5.0133026

----- Orbital basis set information -----
Your calculation utilizes the basis: vDZP
   Marcel Mueller, Andreas Hansen, Stefan Grimme 
   J. Chem. Phys. 158, 014103 (2023). DOI: 10.1063/5.0133026

----- AuxJ basis set information -----
Your calculation utilizes the auxiliary basis: def2/J
   F. Weigend, Phys. Chem. Chem. Phys. 8, 1057 (2006).

================================================================================
                                        WARNINGS
                       Please study these warnings very carefully!
================================================================================

WARNING: Frozen-Core approximation turned on, but there are no core electrons.
  ===> : Turning off frozen-core approximation


WARNING: Gradients are needed
  ===> : At least TightSCF should be used for SCF convergence

WARNING: your system is open-shell and RHF/RKS was chosen
  ===> : WILL SWITCH to UHF/UKS


WARNING: Geometry Optimization
  ===> : Switching off AutoStart
         For restart on a previous wavefunction, please use MOREAD

================================================================================
                                       INPUT FILE
================================================================================
NAME = orca.inp
|  1>  ! DEFGRID2 
|  2>  ! wB97X-3c
|  3>  ! LOOSEOPT
|  4>  %pal
|  5> nprocs 4
|  6>  end
|  7>  %maxcore 8000
|  8>  *xyzfile            1             2  isomer.xyz
|  9> 
| 10>                          ****END OF INPUT****
================================================================================

                       *****************************
                       * Geometry Optimization Run *
                       *****************************

Geometry optimization settings:
Update method            Update   .... BFGS
Choice of coordinates    CoordSys .... (2022) Redundant Internals
Initial Hessian          InHess   .... Almloef's Model
Max. no of cycles        MaxIter  .... 50

Convergence Tolerances:
Energy Change            TolE     ....  3.0000e-05 Eh
Max. Gradient            TolMAXG  ....  2.0000e-03 Eh/bohr
RMS Gradient             TolRMSG  ....  5.0000e-04 Eh/bohr
Max. Displacement        TolMAXD  ....  1.0000e-02 bohr
RMS Displacement         TolRMSD  ....  7.0000e-03 bohr
Strict Convergence                .... False

------------------------------------------------------------------------------
                        ORCA OPTIMIZATION COORDINATE SETUP
------------------------------------------------------------------------------

The optimization will be done in redundant internal coordinates (2022)
Making redundant internal coordinates   ...  (2022 redundants) done
Evaluating the initial hessian          ...  (Almloef) done
Evaluating the coordinates              ...  done
Calculating the B-matrix                .... done
Calculating the G-matrix                .... done
Diagonalizing the G-matrix              .... done
The first mode is                       ....   12
The number of degrees of freedom        ....   27

    -----------------------------------------------------------------
                    Redundant Internal Coordinates


    -----------------------------------------------------------------
         Definition                    Initial Value    Approx d2E/dq
    -----------------------------------------------------------------
      1. B(C   1,C   0)                  1.4524         0.496841   
      2. B(O   3,C   2)                  1.5384         0.324476   
      3. B(O   3,C   1)                  1.4899         0.387690   
      4. B(O   4,C   2)                  1.1639         1.284021   
      5. B(H   5,O   3)                  0.9823         0.479011   
      6. B(H   6,C   0)                  1.0713         0.385703   
      7. B(H   7,C   0)                  1.0768         0.378026   
      8. B(H   8,C   1)                  1.0941         0.354707   
      9. B(H   9,C   1)                  1.1057         0.339860   
     10. B(H  10,C   2)                  1.0838         0.368345   
     11. A(C   1,C   0,H   6)          120.1921         0.343940   
     12. A(H   6,C   0,H   7)          118.3027         0.296268   
     13. A(C   1,C   0,H   7)          121.4260         0.342782   
     14. A(C   0,C   1,H   9)          112.7558         0.336742   
     15. A(O   3,C   1,H   9)          104.5035         0.321288   
     16. A(O   3,C   1,H   8)          106.3349         0.323547   
     17. A(C   0,C   1,H   8)          113.2402         0.339151   
     18. A(C   0,C   1,O   3)          111.1930         0.381681   
     19. A(H   8,C   1,H   9)          108.2510         0.287535   
     20. A(O   3,C   2,H  10)          106.5828         0.316218   
     21. A(O   3,C   2,O   4)          117.9276         0.434653   
     22. A(O   4,C   2,H  10)          135.4367         0.399209   
     23. A(C   2,O   3,H   5)          114.9350         0.327328   
     24. A(C   1,O   3,H   5)          109.1627         0.337126   
     25. A(C   1,O   3,C   2)          117.6940         0.352588   
     26. D(H   9,C   1,C   0,H   6)   -102.8049         0.018218   
     27. D(H   8,C   1,C   0,H   7)   -162.7476         0.018218   
     28. D(O   3,C   1,C   0,H   6)    140.2000         0.018218   
     29. D(H   8,C   1,C   0,H   6)     20.5438         0.018218   
     30. D(O   3,C   1,C   0,H   7)    -43.0914         0.018218   
     31. D(C   2,O   3,C   1,H   8)   -129.1679         0.012853   
     32. D(C   1,O   3,C   2,H  10)   -172.4067         0.008547   
     33. D(C   2,O   3,C   1,C   0)    107.1456         0.012853   
     34. D(C   1,O   3,C   2,O   4)      9.8352         0.008547   
     35. D(H   5,O   3,C   1,H   8)     97.4814         0.012853   
     36. D(H   5,O   3,C   1,C   0)    -26.2052         0.012853   
     37. D(H   5,O   3,C   2,O   4)    140.5927         0.008547   
     38. D(H   5,O   3,C   2,H  10)    -41.6492         0.008547   
     39. D(C   2,O   3,C   1,H   9)    -14.7800         0.012853   
    -----------------------------------------------------------------

Number of atoms                         .... 11
Number of degrees of freedom            .... 39


         *************************************************************
         *                GEOMETRY OPTIMIZATION CYCLE   1            *
         *************************************************************
---------------------------------
CARTESIAN COORDINATES (ANGSTROEM)
---------------------------------
  C     -0.028929   -2.053990   -0.540095
  C      0.324381   -1.053679    0.451849
  C     -0.110275    1.423022   -0.175680
  O      0.816527    0.195330   -0.194358
  O     -1.066420    1.374217    0.486222
  H      1.195350   -0.024248   -1.073701
  H      0.208959   -3.085215   -0.373740
  H     -0.577653   -1.793633   -1.429231
  H      1.116487   -1.381007    1.131920
  H     -0.540940   -0.728991    1.058870
  H      0.357844    2.173543   -0.802009

----------------------------
CARTESIAN COORDINATES (A.U.)
----------------------------
  NO LB      ZA    FRAG     MASS         X           Y           Z
   0 C     4.0000*   0    12.011   -0.054668   -3.881478   -1.020632
   1 C     4.0000*   0    12.011    0.612991   -1.991164    0.853871
   2 C     4.0000*   0    12.011   -0.208390    2.689123   -0.331987
   3 O     6.0000*   0    15.999    1.543012    0.369121   -0.367284
   4 O     6.0000*   0    15.999   -2.015241    2.596894    0.918827
   5 H     1.0000    0     1.008    2.258885   -0.045822   -2.029001
   6 H     1.0000    0     1.008    0.394876   -5.830212   -0.706267
   7 H     1.0000    0     1.008   -1.091606   -3.389475   -2.700856
   8 H     1.0000    0     1.008    2.109854   -2.609725    2.139018
   9 H     1.0000    0     1.008   -1.022228   -1.377594    2.000975
  10 H     1.0000    0     1.008    0.676228    4.107401   -1.515577
* core charge reduced due to ECP

--------------------------------
INTERNAL COORDINATES (ANGSTROEM)
--------------------------------
 C      0   0   0     0.000000000000     0.00000000     0.00000000
 C      1   0   0     1.452378794641     0.00000000     0.00000000
 C      2   1   0     2.591672677275   116.87311185     0.00000000
 O      2   1   3     1.489904107515   111.19303661   325.73501843
 O      3   2   1     1.163919739457    87.70783547   101.50421728
 H      4   2   1     0.982326788384   109.16265571   333.79484845
 H      1   2   3     1.071303133675   120.19211552   174.46498983
 H      1   2   3     1.076775947665   121.42599047   351.17363082
 H      2   1   3     1.094107682274   113.24018392   206.07876779
 H      2   1   3     1.105747209836   112.75577346    82.73014638
 H      3   2   1     1.083837957642   136.82221328   283.48274604

---------------------------
INTERNAL COORDINATES (A.U.)
---------------------------
 C      0   0   0     0.000000000000     0.00000000     0.00000000
 C      1   0   0     2.744598164586     0.00000000     0.00000000
 C      2   1   0     4.897551588816   116.87311185     0.00000000
 O      2   1   3     2.815510729008   111.19303661   325.73501843
 O      3   2   1     2.199489549438    87.70783547   101.50421728
 H      4   2   1     1.856328604059   109.16265571   333.79484845
 H      1   2   3     2.024469529057   120.19211552   174.46498983
 H      1   2   3     2.034811648681   121.42599047   351.17363082
 H      2   1   3     2.067563880516   113.24018392   206.07876779
 H      2   1   3     2.089559399938   112.75577346    82.73014638
 H      3   2   1     2.048156913492   136.82221328   283.48274604

---------------------
BASIS SET INFORMATION
---------------------
There are 3 groups of distinct atoms

 Group   1 Type C   : 6s6p2d contracted to 2s2p1d pattern {42/42/2}
 Group   2 Type O   : 6s6p2d contracted to 2s2p1d pattern {42/42/2}
 Group   3 Type H   : 8s2p contracted to 2s1p pattern {53/2}

Atom   0C    basis set group =>   1
Atom   1C    basis set group =>   1
Atom   2C    basis set group =>   1
Atom   3O    basis set group =>   2
Atom   4O    basis set group =>   2
Atom   5H    basis set group =>   3
Atom   6H    basis set group =>   3
Atom   7H    basis set group =>   3
Atom   8H    basis set group =>   3
Atom   9H    basis set group =>   3
Atom  10H    basis set group =>   3
---------------------------------
AUXILIARY/J BASIS SET INFORMATION
---------------------------------
There are 3 groups of distinct atoms

 Group   1 Type C   : 12s5p4d2f1g contracted to 6s4p3d1f1g pattern {711111/2111/211/2/1}
 Group   2 Type O   : 12s5p4d2f1g contracted to 6s4p3d1f1g pattern {711111/2111/211/2/1}
 Group   3 Type H   : 5s2p1d contracted to 3s1p1d pattern {311/2/1}

Atom   0C    basis set group =>   1
Atom   1C    basis set group =>   1
Atom   2C    basis set group =>   1
Atom   3O    basis set group =>   2
Atom   4O    basis set group =>   2
Atom   5H    basis set group =>   3
Atom   6H    basis set group =>   3
Atom   7H    basis set group =>   3
Atom   8H    basis set group =>   3
Atom   9H    basis set group =>   3
Atom  10H    basis set group =>   3
-------------------------
ECP PARAMETER INFORMATION
-------------------------

 Group 1, Type C  ECP vDZP-ECP (replacing 2 core electrons, lmax=3)
 Group 2, Type O  ECP vDZP-ECP (replacing 2 core electrons, lmax=3)

Atom   0C    ECP group =>   1
Atom   1C    ECP group =>   1
Atom   2C    ECP group =>   1
Atom   3O    ECP group =>   2
Atom   4O    ECP group =>   2



           ************************************************************
           *        Program running with 4 parallel MPI-processes     *
           *              working on a common directory               *
           ************************************************************
------------------------------------------------------------------------------
                             ORCA STARTUP CALCULATIONS
                           -- RI-GTO INTEGRALS CHOSEN --
------------------------------------------------------------------------------
------------------------------------------------------------------------------
                   ___                                                        
                  /   \      - P O W E R E D   B Y -                         
                 /     \                                                     
                 |  |  |   _    _      __       _____    __    __             
                 |  |  |  | |  | |    /  \     |  _  \  |  |  /  |          
                  \  \/   | |  | |   /    \    | | | |  |  | /  /          
                 / \  \   | |__| |  /  /\  \   | |_| |  |  |/  /          
                |  |  |   |  __  | /  /__\  \  |    /   |      \           
                |  |  |   | |  | | |   __   |  |    \   |  |\   \          
                \     /   | |  | | |  |  |  |  | |\  \  |  | \   \       
                 \___/    |_|  |_| |__|  |__|  |_| \__\ |__|  \__/        
                                                                              
                      - O R C A' S   B I G   F R I E N D -                    
                                      &                                       
                       - I N T E G R A L  F E E D E R -                       
                                                                              
 v1 FN, 2020, v2 2021, v3 2022-2024                                           
------------------------------------------------------------------------------


----------------------
SHARK INTEGRAL PACKAGE
----------------------

Number of atoms                             ...     11
Number of basis functions                   ...     95
Number of shells                            ...     43
Maximum angular momentum                    ...      2
Integral batch strategy                     ... SHARK/LIBINT Hybrid
RI-J (if used) integral strategy            ... SPLIT-RIJ (Revised 2003 algorithm where possible)
Printlevel                                  ...      1
Contraction scheme used                     ... SEGMENTED contraction
Prescreening option                         ... SCHWARTZ
   Thresh                                   ... 1.000e-10
   Tcut                                     ... 1.000e-11
   Tpresel                                  ... 1.000e-11 
Coulomb Range Separation                    ... NOT USED
Exchange Range Separation                   ... Long Range
   Mu parameter                             ... 3.000e-01
   Scaling (regular/separated)              ... 1.670e-01 8.330e-01
Multipole approximations                    ... NOT USED
Finite Nucleus Model                        ... NOT USED
CABS basis                                  ... NOT available
Auxiliary Coulomb fitting basis             ... AVAILABLE
   # of basis functions in Aux-J            ...    311
   # of shells in Aux-J                     ...    105
   Maximum angular momentum in Aux-J        ...      4
Auxiliary J/K fitting basis                 ... NOT available
Auxiliary Correlation fitting basis         ... NOT available
Auxiliary 'external' fitting basis          ... NOT available

Checking pre-screening integrals            ... done (  0.0 sec) Dimension = 43
Check shell pair data                       ... done (  0.0 sec)
Shell pair information
Shell pair cut-off parameter TPreSel        ...   1.0e-11
Total number of shell pairs                 ...       946
Shell pairs after pre-screening             ...       946
Total number of primitive shell pairs       ...      8674
Primitive shell pairs kept                  ...      7808
          la=0 lb=0:    253 shell pairs
          la=1 lb=0:    352 shell pairs
          la=1 lb=1:    136 shell pairs
          la=2 lb=0:    110 shell pairs
          la=2 lb=1:     80 shell pairs
          la=2 lb=2:     15 shell pairs

Calculating one electron integrals          ... done (  0.0 sec)
Calculating ECP integrals                   ... done (  0.0 sec)
Calculating RI/J V-Matrix + Cholesky decomp.... done (  0.0 sec)
Calculating Nuclear repulsion               ... done (  0.0 sec) ENN=     99.922774639836 Eh

Diagonalization of the overlap matrix:
Smallest eigenvalue                        ... 2.585e-03
Time for diagonalization                   ...    0.002 sec
Threshold for overlap eigenvalues          ... 1.000e-07
Number of eigenvalues below threshold      ... 0
Time for construction of square roots      ...    0.000 sec
Total time needed                          ...    0.003 sec

-------------------
DFT GRID GENERATION
-------------------

General Integration Accuracy     IntAcc      ... 4.388
Radial Grid Type                 RadialGrid  ... OptM3 with GC (2021)
Angular Grid (max. ang.)         AngularGrid ... 4 (Lebedev-302)
Angular grid pruning method      GridPruning ... 4 (adaptive)
Weight generation scheme         WeightScheme... mBecke (2022)
Basis function cutoff            BFCut       ... 1.0000e-10
Integration weight cutoff        WCut        ... 1.0000e-14
Partially contracted basis set               ... off
Rotationally invariant grid construction     ... off
Angular grids for H and He will be reduced by one unit

Total number of grid points                  ...    49854
Total number of batches                      ...      785
Average number of points per batch           ...       63
Average number of grid points per atom       ...     4532

--------------------
COSX GRID GENERATION
--------------------

GRIDX 1
-------
General Integration Accuracy     IntAcc      ... 3.816
Radial Grid Type                 RadialGrid  ... OptM3 with GC (2021)
Angular Grid (max. ang.)         AngularGrid ... 1 (Lebedev-50)
Angular grid pruning method      GridPruning ... 4 (adaptive)
Weight generation scheme         WeightScheme... mBecke (2022)
Basis function cutoff            BFCut       ... 1.0000e-10
Integration weight cutoff        WCut        ... 1.0000e-14
Partially contracted basis set               ... on
Rotationally invariant grid construction     ... off
Angular grids for H and He will be reduced by one unit

Total number of grid points                  ...     6402
Total number of batches                      ...       58
Average number of points per batch           ...      110
Average number of grid points per atom       ...      582
UseSFitting                                  ... on

GRIDX 2
-------
General Integration Accuracy     IntAcc      ... 4.020
Radial Grid Type                 RadialGrid  ... OptM3 with GC (2021)
Angular Grid (max. ang.)         AngularGrid ... 2 (Lebedev-110)
Angular grid pruning method      GridPruning ... 4 (adaptive)
Weight generation scheme         WeightScheme... mBecke (2022)
Basis function cutoff            BFCut       ... 1.0000e-10
Integration weight cutoff        WCut        ... 1.0000e-14
Partially contracted basis set               ... on
Rotationally invariant grid construction     ... off
Angular grids for H and He will be reduced by one unit

Total number of grid points                  ...    13840
Total number of batches                      ...      115
Average number of points per batch           ...      120
Average number of grid points per atom       ...     1258
UseSFitting                                  ... on

GRIDX 3
-------
General Integration Accuracy     IntAcc      ... 4.338
Radial Grid Type                 RadialGrid  ... OptM3 with GC (2021)
Angular Grid (max. ang.)         AngularGrid ... 3 (Lebedev-194)
Angular grid pruning method      GridPruning ... 4 (adaptive)
Weight generation scheme         WeightScheme... mBecke (2022)
Basis function cutoff            BFCut       ... 1.0000e-10
Integration weight cutoff        WCut        ... 1.0000e-14
Partially contracted basis set               ... on
Rotationally invariant grid construction     ... off
Angular grids for H and He will be reduced by one unit

Total number of grid points                  ...    30490
Total number of batches                      ...      244
Average number of points per batch           ...      124
Average number of grid points per atom       ...     2772
UseSFitting                                  ... on
Initializing property integral containers    ... done (  0.0 sec)

SHARK setup successfully completed in   0.8 seconds

Maximum memory used throughout the entire STARTUP-calculation: 16.2 MB


           ************************************************************
           *        Program running with 4 parallel MPI-processes     *
           *              working on a common directory               *
           ************************************************************
-------------------------------------------------------------------------------
                                 ORCA GUESS
                   Start orbitals & Density for SCF / CASSCF
-------------------------------------------------------------------------------

------------
SCF SETTINGS
------------
Hamiltonian:
 Density Functional     Method          .... DFT(GTOs)
 Exchange Functional    Exchange        .... WB97X-V
 Correlation Functional Correlation     .... WB97X-V
 Gradients option       PostSCFGGA      .... off
 Hybrid DFT is turned on
   Fraction HF Exchange ScalHFX         ....  0.167000
   Scaling of DF-GGA-X  ScalDFX         ....  0.000000
   Scaling of DF-GGA-C  ScalDFC         ....  1.000000
   Scaling of DF-LDA-C  ScalLDAC        ....  1.000000
   Perturbative correction              ....  0.000000
 Long-range corrected/Screened/Range-Separated Hybrid DFT is turned on
   Amount of maximum screened exact exchange              ....  0.833000
   Range separation parameter mu (erf(mu*r12)/r12)        ....  0.300000
   NL short-range parameter             ....  6.000000
   NL long-range parameter              ....  0.010000
 RI-approximation to the Coulomb term is turned on
   Number of AuxJ basis functions       .... 311
   RIJ-COSX (HFX calculated with COS-X)).... on


General Settings:
 Integral files         IntName         .... orca
 Hartree-Fock type      HFTyp           .... UHF
 Total Charge           Charge          ....    1
 Multiplicity           Mult            ....    2
 Number of Electrons    NEL             ....   29
 Basis Dimension        Dim             ....   95
 Nuclear Repulsion      ENuc            ....     99.9227746398 Eh

Convergence Acceleration:
 AO-DIIS                CNVDIIS         .... on
   Start iteration      DIISMaxIt       ....    12
   Startup error        DIISStart       ....  0.200000
   # of expansion vecs  DIISMaxEq       ....     5
   Bias factor          DIISBfac        ....   1.050
   Max. coefficient     DIISMaxC        ....  10.000
 MO-DIIS                CNVKDIIS        .... off
 Trust-Rad. Augm. Hess. CNVTRAH         .... auto
   Auto Start mean grad. ratio tolernc. ....  1.125000
   Auto Start start iteration           ....    50
   Auto Start num. interpolation iter.  ....    10
   Max. Number of Micro iterations      ....    24
   Max. Number of Macro iterations      .... Maxiter - #DIIS iter
   Number of Davidson start vectors     ....     2
   Converg. threshold    (grad. norm)   ....   5.000e-05
   Grad. Scal. Fac. for Micro threshold ....   0.100
   Minimum threshold for Micro iter.    ....   1.000e-02
   NR start threshold (gradient norm)   ....   1.000e-04
   Initial trust radius                 ....   0.400
   Minimum AH scaling param. (alpha)    ....   1.000
   Maximum AH scaling param. (alpha)    .... 1000.000
   Quad. conv. algorithm                .... NR
   White noise on init. David. guess    .... on
   Maximum white noise                  ....   0.010
   Pseudo random numbers                .... off
   Inactive MOs                         .... canonical
   Orbital update algorithm             .... Taylor
   Preconditioner                       .... Diag
   Full preconditioner red. dimension   ....   250
 SOSCF                  CNVSOSCF        .... on
   Start iteration      SOSCFMaxIt      ....   150
   Startup grad/error   SOSCFStart      ....  0.003300
   Hessian update       SOSCFHessUp     .... L-BFGS
 Level Shifting         CNVShift        .... on
   Level shift para.    LevelShift      ....    0.2500
   Turn off err/grad.   ShiftErr        ....    0.0010
 Zerner damping         CNVZerner       .... off
 Static damping         CNVDamp         .... on
   Fraction old density DampFac         ....    0.7000
   Max. Damping (<1)    DampMax         ....    0.9800
   Min. Damping (>=0)   DampMin         ....    0.0000
   Turn off err/grad.   DampErr         ....    0.1000

SCF Procedure:
 Maximum # iterations   MaxIter         ....   125
 SCF integral mode      SCFMode         .... Direct
   Integral package                     .... SHARK and LIBINT hybrid scheme
 Reset frequency        DirectResetFreq ....    20
 Integral Threshold     Thresh          ....  1.000e-10 Eh
 Primitive CutOff       TCut            ....  1.000e-11 Eh

Convergence Tolerance:
 Convergence Check Mode ConvCheckMode   .... Total+1el-Energy
 Convergence forced     ConvForced      .... 0
 Energy Change          TolE            ....  1.000e-06 Eh
 1-El. energy change                    ....  1.000e-03 Eh
 Orbital Gradient       TolG            ....  5.000e-05
 Orbital Rotation angle TolX            ....  5.000e-05
 DIIS Error             TolErr          ....  1.000e-05

------------------------------
INITIAL GUESS: MODEL POTENTIAL
------------------------------
Loading Hartree-Fock densities                     ... done
Atomic calculation to generate a density for atom 0 (C  with ECP)
  Multiplicity assumed   :    1
  Atomic configuration   : 1s2 2s2 2p2 
  Number of open shells  : 1
  Command: /home/alejandro/orca_6_0_1/orca orca_atom6.inp "" > orca_atom6.out
Returned from the atomic calculation with res=0
Atomic calculation to generate a density for atom 3 (O  with ECP)
  Multiplicity assumed   :    3
  Atomic configuration   : 1s2 2s2 2p4 
  Number of open shells  : 1
  Command: /home/alejandro/orca_6_0_1/orca orca_atom8.inp "" > orca_atom8.out
Returned from the atomic calculation with res=0
Calculating cut-offs                               ... done
Initializing the effective Hamiltonian             ... done
Setting up the integral package (SHARK)            ... done
Starting the Coulomb interaction                   ... done (   0.1 sec)
Making the grid                                    ... done (   0.1 sec)
Mapping shells                                     ... done
Starting the XC term evaluation                    ... done (   0.0 sec)
  promolecular density results
     # of electrons  =     39.997503006
     EX              =    -22.646436879
     EC              =     -1.651195097
     EX+EC           =    -24.297631976
Transforming the Hamiltonian                       ... done (   0.0 sec)
Diagonalizing the Hamiltonian                      ... done (   0.0 sec)
Back transforming the eigenvectors                 ... done (   0.0 sec)
Now organizing SCF variables                       ... done
                      ------------------
                      INITIAL GUESS DONE (   1.4 sec)
                      ------------------
             **** ENERGY FILE WAS UPDATED (orca.en.tmp) ****
Finished Guess after   1.7 sec
Maximum memory used throughout the entire GUESS-calculation: 9.6 MB


           ************************************************************
           *        Program running with 4 parallel MPI-processes     *
           *              working on a common directory               *
           ************************************************************

-------------------------------------------------------------------------------------------
                                      ORCA LEAN-SCF
                              memory conserving SCF solver
-------------------------------------------------------------------------------------------

----------------------------------------D-I-I-S--------------------------------------------
Iteration    Energy (Eh)           Delta-E    RMSDP     MaxDP     DIISErr   Damp  Time(sec)
-------------------------------------------------------------------------------------------
               ***  Starting incremental Fock matrix formation  ***
    1    -52.2922405050824324     0.00e+00  1.98e-03  3.87e-02  8.87e-02  0.700   2.0
    2    -52.3429634161937116    -5.07e-02  1.36e-03  2.31e-02  3.92e-02  0.700   3.0
                               ***Turning on AO-DIIS***
    3    -52.3666948469399216    -2.37e-02  7.75e-04  9.45e-03  2.28e-02  0.700   1.7
    4    -52.3818279738320456    -1.51e-02  1.75e-03  2.01e-02  1.52e-02  0.000   1.0
    5    -52.4166698115273419    -3.48e-02  2.61e-04  7.07e-03  4.73e-03  0.000   1.0
                              *** Initializing SOSCF ***
---------------------------------------S-O-S-C-F--------------------------------------
Iteration    Energy (Eh)           Delta-E    RMSDP     MaxDP     MaxGrad    Time(sec)
--------------------------------------------------------------------------------------
    6    -52.4170594060018828    -3.90e-04  1.44e-04  3.03e-03  3.06e-03     1.0
               *** Restarting incremental Fock matrix formation ***
    7    -52.4171776765133046    -1.18e-04  9.41e-05  2.70e-03  1.62e-03     2.0
    8    -52.4172189937047364    -4.13e-05  1.18e-04  3.37e-03  8.72e-04     1.7
    9    -52.4172281685448667    -9.17e-06  4.07e-05  1.12e-03  6.97e-04     1.7
   10    -52.4172349312645309    -6.76e-06  4.00e-06  5.86e-05  5.08e-05     1.6
   11    -52.4172349645318008    -3.33e-08  3.35e-06  5.23e-05  1.41e-05     1.4
                 **** Energy Check signals convergence ****

               *****************************************************
               *                     SUCCESS                       *
               *           SCF CONVERGED AFTER  11 CYCLES          *
               *****************************************************

Recomputing exchange energy using gridx3       ... done (    3.560 sec)
Old exchange energy                            :     -5.883689629 Eh
New exchange energy                            :     -5.883704307 Eh
Exchange energy change after final integration :     -0.000014678 Eh
Total energy after final integration           :    -52.417249642 Eh
             **** ENERGY FILE WAS UPDATED (orca.en.tmp) ****

----------------
TOTAL SCF ENERGY
----------------

Total Energy       :        -52.41724964238261 Eh           -1426.34588 eV

Components:
Nuclear Repulsion  :         99.92277463983551 Eh            2719.03693 eV
Electronic Energy  :       -152.34000960436731 Eh           -4145.38241 eV
One Electron Energy:       -272.95380452622737 Eh           -7427.45063 eV
Two Electron Energy:        120.61379492186005 Eh            3282.06822 eV

Virial components:
Potential Energy   :        -93.29051738204792 Eh           -2538.56404 eV
Kinetic Energy     :         40.87326773966532 Eh            1112.21816 eV
Virial Ratio       :          2.28243354498213

DFT components:
N(Alpha)           :       14.999989708065 electrons
N(Beta)            :       13.999995096645 electrons
N(Total)           :       28.999984804711 electrons
E(X)               :       -7.147742170465 Eh       
E(C)               :       -1.110669124311 Eh       
E(XC)              :       -8.258411294776 Eh       

---------------
SCF CONVERGENCE
---------------

  Last Energy change         ...    3.3267e-08  Tolerance :   1.0000e-06
  Last MAX-Density change    ...    5.2311e-05  Tolerance :   1.0000e-05
  Last RMS-Density change    ...    3.3499e-06  Tolerance :   1.0000e-06
  Last DIIS Error            ...    3.0583e-03  Tolerance :   1.0000e-05
  Last Orbital Gradient      ...    1.4105e-05  Tolerance :   5.0000e-05
  Last Orbital Rotation      ...    6.2575e-05  Tolerance :   5.0000e-05


----------------------
UHF SPIN CONTAMINATION
----------------------

Warning: in a DFT calculation there is little theoretical justification to 
         calculate <S**2> as in Hartree-Fock theory. We will do it anyways
         but you should keep in mind that the values have only limited relevance

Expectation value of <S**2>     :     0.753495
Ideal value S*(S+1) for S=0.5   :     0.750000
Deviation                       :     0.003495

----------------
ORBITAL ENERGIES
----------------
                 SPIN UP ORBITALS
  NO   OCC          E(Eh)            E(eV) 
   0   1.0000      -1.507366       -41.0175 
   1   1.0000      -1.446435       -39.3595 
   2   1.0000      -1.139587       -31.0097 
   3   1.0000      -1.031079       -28.0571 
   4   1.0000      -1.006076       -27.3767 
   5   1.0000      -0.921435       -25.0735 
   6   1.0000      -0.856029       -23.2937 
   7   1.0000      -0.851308       -23.1653 
   8   1.0000      -0.823845       -22.4180 
   9   1.0000      -0.775569       -21.1043 
  10   1.0000      -0.751387       -20.4463 
  11   1.0000      -0.715949       -19.4820 
  12   1.0000      -0.702800       -19.1242 
  13   1.0000      -0.674676       -18.3589 
  14   1.0000      -0.523484       -14.2447 
  15   0.0000      -0.175836        -4.7847 
  16   0.0000      -0.120972        -3.2918 
  17   0.0000      -0.080558        -2.1921 
  18   0.0000      -0.058102        -1.5810 
  19   0.0000      -0.042429        -1.1545 
  20   0.0000      -0.024188        -0.6582 
  21   0.0000      -0.021427        -0.5830 
  22   0.0000       0.017649         0.4802 
  23   0.0000       0.020634         0.5615 
  24   0.0000       0.051811         1.4099 
  25   0.0000       0.127315         3.4644 

                 SPIN DOWN ORBITALS
  NO   OCC          E(Eh)            E(eV) 
   0   1.0000      -1.505759       -40.9738 
   1   1.0000      -1.445197       -39.3258 
   2   1.0000      -1.126910       -30.6648 
   3   1.0000      -1.026703       -27.9380 
   4   1.0000      -0.988207       -26.8905 
   5   1.0000      -0.914590       -24.8873 
   6   1.0000      -0.851152       -23.1610 
   7   1.0000      -0.845357       -23.0033 
   8   1.0000      -0.822387       -22.3783 
   9   1.0000      -0.771620       -20.9969 
  10   1.0000      -0.739541       -20.1239 
  11   1.0000      -0.707726       -19.2582 
  12   1.0000      -0.694539       -18.8994 
  13   1.0000      -0.672206       -18.2917 
  14   0.0000      -0.194015        -5.2794 
  15   0.0000      -0.174069        -4.7366 
  16   0.0000      -0.109953        -2.9920 
  17   0.0000      -0.077584        -2.1112 
  18   0.0000      -0.055880        -1.5206 
  19   0.0000      -0.039544        -1.0760 
  20   0.0000      -0.022106        -0.6015 
  21   0.0000      -0.016006        -0.4356 
  22   0.0000       0.020303         0.5525 
  23   0.0000       0.024365         0.6630 
  24   0.0000       0.052962         1.4412 
*Only the first 10 virtual orbitals were printed.

                    ********************************
                    * MULLIKEN POPULATION ANALYSIS *
                    ********************************

--------------------------------------------
MULLIKEN ATOMIC CHARGES AND SPIN POPULATIONS
--------------------------------------------
   0 C :   -0.019597    0.977559
   1 C :    0.086167   -0.026996
   2 C :    0.414232   -0.004288
   3 O :   -0.134903    0.019474
   4 O :   -0.078677    0.006200
   5 H :    0.239061    0.005575
   6 H :    0.084747   -0.015973
   7 H :    0.072888   -0.015145
   8 H :    0.113989    0.009185
   9 H :    0.125438    0.043895
  10 H :    0.096656    0.000513
Sum of atomic charges         :    1.0000000
Sum of atomic spin populations:    1.0000000

-----------------------------------------------------
MULLIKEN REDUCED ORBITAL CHARGES AND SPIN POPULATIONS
-----------------------------------------------------
CHARGE
  0 C s       :     1.077700  s :     1.077700
      pz      :     0.964592  p :     2.891259
      px      :     0.932323
      py      :     0.994344
      dz2     :     0.009019  d :     0.050638
      dxz     :     0.010566
      dyz     :     0.014220
      dx2y2   :     0.009247
      dxy     :     0.007587

  1 C s       :     1.046257  s :     1.046257
      pz      :     0.962456  p :     2.740735
      px      :     1.078016
      py      :     0.700262
      dz2     :     0.018866  d :     0.126841
      dxz     :     0.027178
      dyz     :     0.031179
      dx2y2   :     0.022653
      dxy     :     0.026966

  2 C s       :     1.145702  s :     1.145702
      pz      :     0.773110  p :     2.237600
      px      :     0.752722
      py      :     0.711768
      dz2     :     0.033719  d :     0.202467
      dxz     :     0.024044
      dyz     :     0.033836
      dx2y2   :     0.033636
      dxy     :     0.077233

  3 O s       :     1.576170  s :     1.576170
      pz      :     1.472630  p :     4.523065
      px      :     1.649305
      py      :     1.401130
      dz2     :     0.009357  d :     0.035668
      dxz     :     0.004821
      dyz     :     0.005523
      dx2y2   :     0.006294
      dxy     :     0.009674

  4 O s       :     1.767417  s :     1.767417
      pz      :     1.321012  p :     4.265506
      px      :     1.297202
      py      :     1.647292
      dz2     :     0.011579  d :     0.045754
      dxz     :     0.011797
      dyz     :     0.004187
      dx2y2   :     0.009529
      dxy     :     0.008662

  5 H s       :     0.669830  s :     0.669830
      pz      :     0.041567  p :     0.091109
      px      :     0.030693
      py      :     0.018849

  6 H s       :     0.863807  s :     0.863807
      pz      :     0.011048  p :     0.051446
      px      :     0.013254
      py      :     0.027145

  7 H s       :     0.874320  s :     0.874320
      pz      :     0.022898  p :     0.052792
      px      :     0.019173
      py      :     0.010720

  8 H s       :     0.844522  s :     0.844522
      pz      :     0.015706  p :     0.041489
      px      :     0.018132
      py      :     0.007651

  9 H s       :     0.826482  s :     0.826482
      pz      :     0.014445  p :     0.048080
      px      :     0.022215
      py      :     0.011419

 10 H s       :     0.856210  s :     0.856210
      pz      :     0.015937  p :     0.047134
      px      :     0.011974
      py      :     0.019223


SPIN
  0 C s       :     0.060455  s :     0.060455
      pz      :     0.209074  p :     0.920616
      px      :     0.672749
      py      :     0.038793
      dz2     :     0.000166  d :    -0.003512
      dxz     :    -0.001479
      dyz     :    -0.000321
      dx2y2   :    -0.001417
      dxy     :    -0.000461

  1 C s       :    -0.013666  s :    -0.013666
      pz      :    -0.021347  p :    -0.039857
      px      :    -0.026057
      py      :     0.007547
      dz2     :     0.004345  d :     0.026528
      dxz     :     0.008324
      dyz     :     0.004259
      dx2y2   :    -0.000012
      dxy     :     0.009612

  2 C s       :    -0.001589  s :    -0.001589
      pz      :    -0.000535  p :    -0.003109
      px      :    -0.001052
      py      :    -0.001521
      dz2     :     0.000085  d :     0.000410
      dxz     :     0.000068
      dyz     :    -0.000033
      dx2y2   :     0.000201
      dxy     :     0.000088

  3 O s       :     0.000635  s :     0.000635
      pz      :     0.000673  p :     0.018864
      px      :     0.002839
      py      :     0.015352
      dz2     :    -0.000106  d :    -0.000025
      dxz     :     0.000185
      dyz     :     0.000002
      dx2y2   :    -0.000075
      dxy     :    -0.000031

  4 O s       :     0.000290  s :     0.000290
      pz      :     0.003518  p :     0.005950
      px      :     0.001407
      py      :     0.001024
      dz2     :    -0.000036  d :    -0.000040
      dxz     :    -0.000013
      dyz     :     0.000014
      dx2y2   :     0.000002
      dxy     :    -0.000006

  5 H s       :     0.004701  s :     0.004701
      pz      :     0.000427  p :     0.000874
      px      :     0.000005
      py      :     0.000442

  6 H s       :    -0.029544  s :    -0.029544
      pz      :     0.003184  p :     0.013571
      px      :     0.009382
      py      :     0.001005

  7 H s       :    -0.029895  s :    -0.029895
      pz      :     0.004225  p :     0.014750
      px      :     0.010495
      py      :     0.000030

  8 H s       :     0.009871  s :     0.009871
      pz      :    -0.000545  p :    -0.000687
      px      :    -0.000006
      py      :    -0.000136

  9 H s       :     0.043438  s :     0.043438
      pz      :    -0.000387  p :     0.000457
      px      :     0.000432
      py      :     0.000412

 10 H s       :     0.000554  s :     0.000554
      pz      :    -0.000022  p :    -0.000041
      px      :    -0.000009
      py      :    -0.000009



                     *******************************
                     * LOEWDIN POPULATION ANALYSIS *
                     *******************************

-------------------------------------------
LOEWDIN ATOMIC CHARGES AND SPIN POPULATIONS
-------------------------------------------
   0 C :    0.049600    0.780877
   1 C :    0.021962    0.061332
   2 C :    0.196364   -0.001249
   3 O :    0.166294    0.027919
   4 O :    0.060683    0.006963
   5 H :    0.133578    0.007585
   6 H :    0.054892    0.036437
   7 H :    0.040502    0.037534
   8 H :    0.091892    0.007116
   9 H :    0.086746    0.034871
  10 H :    0.097487    0.000615

----------------------------------------------------
LOEWDIN REDUCED ORBITAL CHARGES AND SPIN POPULATIONS
----------------------------------------------------
CHARGE
  0 C s       :     0.859475  s :     0.859475
      pz      :     0.989136  p :     2.911908
      px      :     0.869800
      py      :     1.052973
      dz2     :     0.035958  d :     0.179017
      dxz     :     0.037388
      dyz     :     0.044932
      dx2y2   :     0.035790
      dxy     :     0.024949

  1 C s       :     0.778473  s :     0.778473
      pz      :     0.982060  p :     2.820297
      px      :     1.064391
      py      :     0.773847
      dz2     :     0.052817  d :     0.379267
      dxz     :     0.085654
      dyz     :     0.089621
      dx2y2   :     0.072037
      dxy     :     0.079139

  2 C s       :     0.825366  s :     0.825366
      pz      :     0.820372  p :     2.438850
      px      :     0.838730
      py      :     0.779748
      dz2     :     0.076545  d :     0.539421
      dxz     :     0.091469
      dyz     :     0.079625
      dx2y2   :     0.094850
      dxy     :     0.196932

  3 O s       :     1.289216  s :     1.289216
      pz      :     1.471505  p :     4.446582
      px      :     1.580510
      py      :     1.394568
      dz2     :     0.024427  d :     0.097907
      dxz     :     0.012610
      dyz     :     0.016525
      dx2y2   :     0.017541
      dxy     :     0.026804

  4 O s       :     1.514600  s :     1.514600
      pz      :     1.357702  p :     4.342080
      px      :     1.429604
      py      :     1.554774
      dz2     :     0.015505  d :     0.082637
      dxz     :     0.026321
      dyz     :     0.007430
      dx2y2   :     0.018196
      dxy     :     0.015184

  5 H s       :     0.585523  s :     0.585523
      pz      :     0.133024  p :     0.280899
      px      :     0.086266
      py      :     0.061609

  6 H s       :     0.783176  s :     0.783176
      pz      :     0.040854  p :     0.161932
      px      :     0.047948
      py      :     0.073130

  7 H s       :     0.796364  s :     0.796364
      pz      :     0.064916  p :     0.163134
      px      :     0.058920
      py      :     0.039298

  8 H s       :     0.768070  s :     0.768070
      pz      :     0.053006  p :     0.140038
      px      :     0.056309
      py      :     0.030723

  9 H s       :     0.760157  s :     0.760157
      pz      :     0.048661  p :     0.153097
      px      :     0.064360
      py      :     0.040075

 10 H s       :     0.770388  s :     0.770388
      pz      :     0.043317  p :     0.132125
      px      :     0.033130
      py      :     0.055678


SPIN
  0 C s       :     0.020292  s :     0.020292
      pz      :     0.169801  p :     0.765839
      px      :     0.572425
      py      :     0.023613
      dz2     :    -0.000611  d :    -0.005254
      dxz     :    -0.001076
      dyz     :    -0.000874
      dx2y2   :    -0.002109
      dxy     :    -0.000584

  1 C s       :    -0.002595  s :    -0.002595
      pz      :    -0.009231  p :    -0.005685
      px      :    -0.007267
      py      :     0.010814
      dz2     :     0.010290  d :     0.069612
      dxz     :     0.021588
      dyz     :     0.012972
      dx2y2   :     0.000709
      dxy     :     0.024054

  2 C s       :    -0.000373  s :    -0.000373
      pz      :    -0.000126  p :    -0.001832
      px      :    -0.001020
      py      :    -0.000685
      dz2     :     0.000251  d :     0.000955
      dxz     :     0.000166
      dyz     :    -0.000052
      dx2y2   :     0.000476
      dxy     :     0.000114

  3 O s       :     0.005055  s :     0.005055
      pz      :     0.000803  p :     0.022654
      px      :     0.002679
      py      :     0.019171
      dz2     :    -0.000280  d :     0.000211
      dxz     :     0.000468
      dyz     :    -0.000054
      dx2y2   :    -0.000145
      dxy     :     0.000221

  4 O s       :     0.000323  s :     0.000323
      pz      :     0.003634  p :     0.006665
      px      :     0.001247
      py      :     0.001785
      dz2     :    -0.000010  d :    -0.000025
      dxz     :    -0.000001
      dyz     :     0.000006
      dx2y2   :    -0.000014
      dxy     :    -0.000006

  5 H s       :     0.004635  s :     0.004635
      pz      :     0.001735  p :     0.002949
      px      :     0.000385
      py      :     0.000829

  6 H s       :    -0.016474  s :    -0.016474
      pz      :     0.012043  p :     0.052911
      px      :     0.036336
      py      :     0.004532

  7 H s       :    -0.015616  s :    -0.015616
      pz      :     0.013812  p :     0.053150
      px      :     0.037990
      py      :     0.001349

  8 H s       :     0.008575  s :     0.008575
      pz      :    -0.001052  p :    -0.001459
      px      :    -0.000304
      py      :    -0.000103

  9 H s       :     0.032727  s :     0.032727
      pz      :     0.000088  p :     0.002145
      px      :    -0.000184
      py      :     0.002240

 10 H s       :     0.000679  s :     0.000679
      pz      :    -0.000007  p :    -0.000064
      px      :    -0.000032
      py      :    -0.000025



                      *****************************
                      * MAYER POPULATION ANALYSIS *
                      *****************************

  NA   - Mulliken gross atomic population
  ZA   - Total nuclear charge
  QA   - Mulliken gross atomic charge
  VA   - Mayer's total valence
  BVA  - Mayer's bonded valence
  FA   - Mayer's free valence

  ATOM       NA         ZA         QA         VA         BVA        FA
  0 C      4.0196     4.0000    -0.0196     3.9341     3.1650     0.7691
  1 C      3.9138     4.0000     0.0862     3.8507     3.8451     0.0056
  2 C      3.5858     4.0000     0.4142     3.9122     3.9122     0.0000
  3 O      6.1349     6.0000    -0.1349     2.4071     2.4065     0.0006
  4 O      6.0787     6.0000    -0.0787     2.2978     2.2977     0.0001
  5 H      0.7609     1.0000     0.2391     1.0336     1.0336     0.0000
  6 H      0.9153     1.0000     0.0847     1.0512     1.0500     0.0012
  7 H      0.9271     1.0000     0.0729     1.0485     1.0472     0.0013
  8 H      0.8860     1.0000     0.1140     1.0180     1.0178     0.0001
  9 H      0.8746     1.0000     0.1254     1.0216     1.0193     0.0024
 10 H      0.9033     1.0000     0.0967     1.0238     1.0238     0.0000

  Mayer bond orders larger than 0.100000
B(  0-C ,  1-C ) :   1.1173 B(  0-C ,  6-H ) :   1.0080 B(  0-C ,  7-H ) :   1.0075 
B(  1-C ,  3-O ) :   0.7180 B(  1-C ,  8-H ) :   0.9835 B(  1-C ,  9-H ) :   0.9649 
B(  2-C ,  3-O ) :   0.6917 B(  2-C ,  4-O ) :   2.1979 B(  2-C , 10-H ) :   1.0096 
B(  3-O ,  5-H ) :   0.9672 

-------
TIMINGS
-------

Total SCF time: 0 days 0 hours 0 min 21 sec 

Total time                  ....      21.878 sec
Sum of individual times     ....      22.151 sec  (101.3%)

SCF preparation             ....       0.355 sec  (  1.6%)
Fock matrix formation       ....      19.373 sec  ( 88.6%)
  Startup                   ....       0.009 sec  (  0.0% of F)
  Split-RI-J                ....       0.777 sec  (  4.0% of F)
  Chain of spheres X        ....      16.632 sec  ( 85.9% of F)
  XC integration            ....       1.922 sec  (  9.9% of F)
    Basis function eval.    ....       0.507 sec  ( 26.4% of XC)
    Density eval.           ....       0.412 sec  ( 21.4% of XC)
    XC-Functional eval.     ....       0.273 sec  ( 14.2% of XC)
    XC-Potential eval.      ....       0.584 sec  ( 30.4% of XC)
Diagonalization             ....       0.000 sec  (  0.0%)
Density matrix formation    ....       1.252 sec  (  5.7%)
Total Energy calculation    ....       0.014 sec  (  0.1%)
Population analysis         ....       0.011 sec  (  0.1%)
Orbital Transformation      ....       0.329 sec  (  1.5%)
Orbital Orthonormalization  ....       0.000 sec  (  0.0%)
DIIS solution               ....       0.782 sec  (  3.6%)
SOSCF solution              ....       0.034 sec  (  0.2%)
Finished LeanSCF after  21.9 sec

Maximum memory used throughout the entire LEANSCF-calculation: 13.5 MB


-------------------------------------------------------------------------------
                          DFT DISPERSION CORRECTION                            
                                                                               
                                DFTD4 V3.4.0                                   
-------------------------------------------------------------------------------
The wB97X-3c composite method is recognized
Using three-body term ABC
Active option DFTDOPT                   ...         5   

-------------------------   ----------------
Dispersion correction           -0.006719124
-------------------------   ----------------


-------------------------   --------------------
FINAL SINGLE POINT ENERGY       -52.423968766878
-------------------------   --------------------



           ************************************************************
           *        Program running with 4 parallel MPI-processes     *
           *              working on a common directory               *
           ************************************************************
------------------------------------------------------------------------------
                         ORCA SCF GRADIENT CALCULATION
------------------------------------------------------------------------------

Nuc. rep. gradient        (SHARK) ... done (  0.0 sec)
HCore & Overlap gradient  (SHARK) ... done (  0.0 sec)
ECP gradient              (SHARK) ... done (  0.2 sec)
Split-RIJ-J gradient      (SHARK) ... done (  0.4 sec)
COSX-gradient                     ... done (  6.8 sec)
XC gradient                       ... done (  1.1 sec)
Dispersion correction             ... done (  0.0 sec)

-------------------
DISPERSION GRADIENT
-------------------

   1   C   :   -0.000033637   -0.000356152   -0.000085624
   2   C   :    0.000077070   -0.000196073    0.000088283
   3   C   :   -0.000034932    0.000319074   -0.000032491
   4   O   :    0.000158072    0.000088485   -0.000005440
   5   O   :   -0.000201409    0.000277462    0.000076232
   6   H   :    0.000060342    0.000018150   -0.000045436
   7   H   :   -0.000007256   -0.000066709   -0.000017077
   8   H   :   -0.000037921   -0.000083917   -0.000066269
   9   H   :    0.000048269   -0.000047289    0.000052636
  10   H   :   -0.000026665   -0.000024113    0.000055822
  11   H   :   -0.000001933    0.000071081   -0.000020633

Difference to translation invariance:
           :   -0.0000000000   -0.0000000000   -0.0000000000

Difference to rotation invariance:
           :    0.0000000000    0.0000000000    0.0000000000

Norm of the Dispersion gradient    ...    0.0006990751
RMS gradient                       ...    0.0001216934
MAX gradient                       ...    0.0003561521

------------------
CARTESIAN GRADIENT
------------------

   1   C   :   -0.002640088   -0.003194934    0.006806113
   2   C   :    0.009598293    0.013308362   -0.022524565
   3   C   :    0.018215651    0.010137640   -0.017696402
   4   O   :    0.004704690   -0.005442066    0.010773623
   5   O   :   -0.024679859   -0.003800566    0.017352113
   6   H   :   -0.000450074   -0.006847595   -0.006702372
   7   H   :   -0.001816803    0.005571566   -0.002432150
   8   H   :    0.004285986   -0.001154811    0.001810970
   9   H   :    0.001650480   -0.004838922    0.004268905
  10   H   :   -0.008548180    0.000477385    0.005734518
  11   H   :   -0.000320096   -0.004216059    0.002609248

Difference to translation invariance:
           :   -0.0000000000    0.0000000000   -0.0000000000

Difference to rotation invariance:
           :    0.0000706151   -0.0000257391   -0.0000788048

Norm of the Cartesian gradient     ...    0.0548706245
RMS gradient                       ...    0.0095517497
MAX gradient                       ...    0.0246798588

-------
TIMINGS
-------

Total SCF gradient time     ....        8.542 sec

Densities                   ....       0.000 sec  (  0.0%)
One electron gradient       ....       0.042 sec  (  0.5%)
RI-J Coulomb gradient       ....       0.362 sec  (  4.2%)
COSX gradient               ....       6.844 sec  ( 80.1%)
XC gradient                 ....       1.098 sec  ( 12.9%)

Maximum memory used throughout the entire SCFGRAD-calculation: 28.5 MB
------------------------------------------------------------------------------
                         ORCA GEOMETRY RELAXATION STEP
------------------------------------------------------------------------------

Reading the OPT-File                    .... done
Getting information on internals        .... done
Copying old internal coords+grads       .... done
Making the new internal coordinates     .... (2022 redundants) done
Validating the new internal coordinates .... (2022 redundants) done
Calculating the B-matrix                .... done
Calculating the G,G- and P matrices     .... done
Transforming gradient to internals      .... done
Projecting the internal gradient        .... done
Number of atoms                         ....  11
Number of internal coordinates          ....  39
Current Energy                          ....   -52.423968767 Eh
Current gradient norm                   ....     0.054870625 Eh/bohr
Maximum allowed component of the step   ....  0.300
Current trust radius                    ....  0.300
Evaluating the initial hessian          ....  (Almloef) done
Projecting the Hessian                  .... done
Forming the augmented Hessian           .... done
Diagonalizing the augmented Hessian     .... done
Last element of RFO vector              ....  0.973782597
Lowest eigenvalues of augmented Hessian:
 -0.003942756  0.008639222  0.008824621  0.012918260  0.018267157
Length of the computed step             ....  0.233605186
The final length of the internal step   ....  0.233605186
Converting the step to Cartesian space:
 Initial RMS(Int)=    0.0374067672
Transforming coordinates:
 Iter   0:  RMS(Cart)=    0.0496700204 RMS(Int)=    0.0374577636
 Iter   5:  RMS(Cart)=    0.0000003598 RMS(Int)=    0.0000003502
done
Storing new coordinates                 .... done

                                .--------------------.
          ----------------------|Geometry convergence|-------------------------
          Item                value                   Tolerance       Converged
          ---------------------------------------------------------------------
          RMS gradient        0.0064599970            0.0005000000      NO
          MAX gradient        0.0303024465            0.0020000000      NO
          RMS step            0.0374067672            0.0070000000      NO
          MAX step            0.1160621494            0.0100000000      NO
          ........................................................
          Max(Bonds)      0.0164      Max(Angles)    2.32
          Max(Dihed)        6.65      Max(Improp)    0.00
          ---------------------------------------------------------------------

The optimization has not yet converged - more geometry cycles are needed


    ---------------------------------------------------------------------------
                         Redundant Internal Coordinates
                            (Angstroem and degrees)

        Definition                    Value    dE/dq     Step     New-Value
    ----------------------------------------------------------------------------
     1. B(C   1,C   0)                1.4524 -0.005028  0.0053    1.4577   
     2. B(O   3,C   2)                1.5384  0.005811 -0.0094    1.5290   
     3. B(O   3,C   1)                1.4899 -0.012109  0.0164    1.5063   
     4. B(O   4,C   2)                1.1639  0.030302 -0.0125    1.1515   
     5. B(H   5,O   3)                0.9823  0.007358 -0.0081    0.9743   
     6. B(H   6,C   0)                1.0713 -0.006143  0.0083    1.0796   
     7. B(H   7,C   0)                1.0768 -0.003961  0.0055    1.0823   
     8. B(H   8,C   1)                1.0941  0.005297 -0.0078    1.0863   
     9. B(H   9,C   1)                1.1057  0.009977 -0.0154    1.0904   
    10. B(H  10,C   2)                1.0838 -0.004566  0.0065    1.0903   
    11. A(C   1,C   0,H   6)          120.19  0.001710   -0.39    119.81   
    12. A(H   6,C   0,H   7)          118.30 -0.001460    0.16    118.46   
    13. A(C   1,C   0,H   7)          121.43 -0.000071   -0.09    121.33   
    14. A(C   0,C   1,H   9)          112.76 -0.002668    0.73    113.48   
    15. A(O   3,C   1,H   9)          104.50  0.001541   -0.33    104.18   
    16. A(O   3,C   1,H   8)          106.33  0.003640   -1.17    105.17   
    17. A(C   0,C   1,H   8)          113.24 -0.003404    0.63    113.87   
    18. A(C   0,C   1,O   3)          111.19  0.002137   -0.54    110.66   
    19. A(H   8,C   1,H   9)          108.25 -0.000546    0.51    108.76   
    20. A(O   3,C   2,H  10)          106.58 -0.000833    0.13    106.71   
    21. A(O   3,C   2,O   4)          117.93 -0.002254    0.28    118.21   
    22. A(O   4,C   2,H  10)          135.44  0.003092   -0.45    134.98   
    23. A(C   2,O   3,H   5)          114.93  0.005573    0.03    114.96   
    24. A(C   1,O   3,H   5)          109.16 -0.001356    1.51    110.67   
    25. A(C   1,O   3,C   2)          117.69 -0.009062    2.32    120.01   
    26. D(H   9,C   1,C   0,H   6)   -102.80  0.002235   -0.32   -103.13   
    27. D(H   8,C   1,C   0,H   7)   -162.75  0.000372   -5.20   -167.94   
    28. D(O   3,C   1,C   0,H   6)    140.20  0.000591   -0.02    140.18   
    29. D(H   8,C   1,C   0,H   6)     20.54 -0.003278    1.43     21.98   
    30. D(O   3,C   1,C   0,H   7)    -43.09  0.004240   -6.65    -49.74   
    31. D(C   2,O   3,C   1,H   8)   -129.17 -0.000796   -0.24   -129.40   
    32. D(C   1,O   3,C   2,H  10)   -172.41  0.002367   -0.26   -172.67   
    33. D(C   2,O   3,C   1,C   0)    107.15 -0.000307    0.09    107.23   
    34. D(C   1,O   3,C   2,O   4)      9.84  0.002179    0.58     10.42   
    35. D(H   5,O   3,C   1,H   8)     97.48  0.001140   -4.12     93.36   
    36. D(H   5,O   3,C   1,C   0)    -26.21  0.001629   -3.80    -30.00   
    37. D(H   5,O   3,C   2,O   4)    140.59 -0.003495    5.43    146.02   
    38. D(H   5,O   3,C   2,H  10)    -41.65 -0.003306    4.59    -37.06   
    39. D(C   2,O   3,C   1,H   9)    -14.78  0.000785   -0.30    -15.08   
    ----------------------------------------------------------------------------

Geometry step timings:
Preparation and reading OPT file:      0.000 s (12.500 %)
Internal coordinates            :      0.000 s ( 1.621 %)
B/P matrices and projection     :      0.000 s (24.895 %)
Hessian update/contruction      :      0.000 s (11.663 %)
Making the step                 :      0.000 s (17.207 %)
Converting the step to Cartesian:      0.000 s ( 4.393 %)
Storing new data                :      0.000 s ( 2.144 %)
Checking convergence            :      0.000 s ( 0.105 %)
Final printing                  :      0.000 s (25.000 %)
Total time                      :      0.002 s

Time for energy+gradient        :     34.466 s
Time for complete geometry iter :     34.948 s

         *************************************************************
         *                GEOMETRY OPTIMIZATION CYCLE   2            *
         *************************************************************
---------------------------------
CARTESIAN COORDINATES (ANGSTROEM)
---------------------------------
  C     -0.015288   -2.068265   -0.556492
  C      0.314636   -1.074357    0.457492
  C     -0.111703    1.437558   -0.186279
  O      0.789762    0.202577   -0.184792
  O     -1.062062    1.418460    0.463594
  H      1.230417    0.016171   -1.033478
  H      0.247482   -3.103157   -0.396537
  H     -0.656281   -1.824239   -1.393675
  H      1.119812   -1.374946    1.121848
  H     -0.540827   -0.767910    1.060173
  H      0.379384    2.183457   -0.811807

----------------------------
CARTESIAN COORDINATES (A.U.)
----------------------------
  NO LB      ZA    FRAG     MASS         X           Y           Z
   0 C     4.0000*   0    12.011   -0.028891   -3.908455   -1.051617
   1 C     4.0000*   0    12.011    0.594576   -2.030241    0.864534
   2 C     4.0000*   0    12.011   -0.211087    2.716592   -0.352016
   3 O     6.0000*   0    15.999    1.492434    0.382816   -0.349207
   4 O     6.0000*   0    15.999   -2.007006    2.680501    0.876065
   5 H     1.0000    0     1.008    2.325151    0.030559   -1.952991
   6 H     1.0000    0     1.008    0.467673   -5.864117   -0.749346
   7 H     1.0000    0     1.008   -1.240191   -3.447312   -2.633664
   8 H     1.0000    0     1.008    2.116137   -2.598271    2.119985
   9 H     1.0000    0     1.008   -1.022015   -1.451140    2.003436
  10 H     1.0000    0     1.008    0.716931    4.126136   -1.534092
* core charge reduced due to ECP

--------------------------------
INTERNAL COORDINATES (ANGSTROEM)
--------------------------------
 C      0   0   0     0.000000000000     0.00000000     0.00000000
 C      1   0   0     1.457691998827     0.00000000     0.00000000
 C      2   1   0     2.627912921756   116.39868463     0.00000000
 O      2   1   3     1.506265373586   110.65902422   327.48530326
 O      3   2   1     1.151469571491    88.84172440   103.13233273
 H      4   2   1     0.974264953488   110.60447042   329.95951356
 H      1   2   3     1.079645759893   119.69798770   172.68891152
 H      1   2   3     1.082264112140   121.22489614   342.77141578
 H      2   1   3     1.086291879387   113.86055293   209.29278098
 H      2   1   3     1.090390515502   113.48654238    84.17870067
 H      3   2   1     1.090327973679   136.16855555   284.12881639

---------------------------
INTERNAL COORDINATES (A.U.)
---------------------------
 C      0   0   0     0.000000000000     0.00000000     0.00000000
 C      1   0   0     2.754638665391     0.00000000     0.00000000
 C      2   1   0     4.966035725912   116.39868463     0.00000000
 O      2   1   3     2.846429041086   110.65902422   327.48530326
 O      3   2   1     2.175962141661    88.84172440   103.13233273
 H      4   2   1     1.841093943970   110.60447042   329.95951356
 H      1   2   3     2.040234807846   119.69798770   172.68891152
 H      1   2   3     2.045182776517   121.22489614   342.77141578
 H      2   1   3     2.052794153543   113.86055293   209.29278098
 H      2   1   3     2.060539453325   113.48654238    84.17870067
 H      3   2   1     2.060421266406   136.16855555   284.12881639



           ************************************************************
           *        Program running with 4 parallel MPI-processes     *
           *              working on a common directory               *
           ************************************************************
------------------------------------------------------------------------------
                   ___                                                        
                  /   \      - P O W E R E D   B Y -                         
                 /     \                                                     
                 |  |  |   _    _      __       _____    __    __             
                 |  |  |  | |  | |    /  \     |  _  \  |  |  /  |          
                  \  \/   | |  | |   /    \    | | | |  |  | /  /          
                 / \  \   | |__| |  /  /\  \   | |_| |  |  |/  /          
                |  |  |   |  __  | /  /__\  \  |    /   |      \           
                |  |  |   | |  | | |   __   |  |    \   |  |\   \          
                \     /   | |  | | |  |  |  |  | |\  \  |  | \   \       
                 \___/    |_|  |_| |__|  |__|  |_| \__\ |__|  \__/        
                                                                              
                      - O R C A' S   B I G   F R I E N D -                    
                                      &                                       
                       - I N T E G R A L  F E E D E R -                       
                                                                              
 v1 FN, 2020, v2 2021, v3 2022-2024                                           
------------------------------------------------------------------------------


----------------------
SHARK INTEGRAL PACKAGE
----------------------

Number of atoms                             ...     11
Number of basis functions                   ...     95
Number of shells                            ...     43
Maximum angular momentum                    ...      2
Integral batch strategy                     ... SHARK/LIBINT Hybrid
RI-J (if used) integral strategy            ... SPLIT-RIJ (Revised 2003 algorithm where possible)
Printlevel                                  ...      1
Contraction scheme used                     ... SEGMENTED contraction
[...]
      pz      :    -0.000127  p :    -0.000108
      px      :    -0.000056
      py      :     0.000074

  7 H s       :     0.026191  s :     0.026191
      pz      :     0.000139  p :     0.000627
      px      :    -0.000336
      py      :     0.000824

  8 H s       :    -0.030985  s :    -0.030985
      pz      :     0.000202  p :     0.013749
      px      :     0.002312
      py      :     0.011235

  9 H s       :    -0.029564  s :    -0.029564
      pz      :     0.000794  p :     0.012830
      px      :     0.001524
      py      :     0.010512

 10 H s       :     0.002492  s :     0.002492
      pz      :     0.000039  p :     0.000089
      px      :     0.000094
      py      :    -0.000045



                     *******************************
                     * LOEWDIN POPULATION ANALYSIS *
                     *******************************

-------------------------------------------
LOEWDIN ATOMIC CHARGES AND SPIN POPULATIONS
-------------------------------------------
   0 C :    0.037036    0.069571
   1 C :    0.065825    0.777554
   2 C :    0.140561    0.005770
   3 O :    0.154330    0.001592
   4 O :    0.102578    0.056086
   5 H :    0.131115    0.000009
   6 H :    0.074256   -0.000836
   7 H :    0.088753    0.020430
   8 H :    0.047838    0.034194
   9 H :    0.048292    0.032867
  10 H :    0.109416    0.002764

----------------------------------------------------
LOEWDIN REDUCED ORBITAL CHARGES AND SPIN POPULATIONS
----------------------------------------------------
CHARGE
  0 C s       :     0.792154  s :     0.792154
      pz      :     1.066401  p :     2.806028
      px      :     1.102462
      py      :     0.637165
      dz2     :     0.075202  d :     0.364781
      dxz     :     0.081990
      dyz     :     0.064895
      dx2y2   :     0.081096
      dxy     :     0.061599

  1 C s       :     0.866027  s :     0.866027
      pz      :     1.001734  p :     2.887939
      px      :     1.058488
      py      :     0.827717
      dz2     :     0.056836  d :     0.180209
      dxz     :     0.073008
      dyz     :     0.020338
      dx2y2   :     0.017173
      dxy     :     0.012854

  2 C s       :     0.768470  s :     0.768470
      pz      :     0.614063  p :     2.454134
      px      :     0.840779
      py      :     0.999292
      dz2     :     0.043057  d :     0.636836
      dxz     :     0.147320
      dyz     :     0.035179
      dx2y2   :     0.216216
      dxy     :     0.195064

  3 O s       :     1.315106  s :     1.315106
      pz      :     1.557429  p :     4.445264
      px      :     1.318049
      py      :     1.569786
      dz2     :     0.010825  d :     0.085299
      dxz     :     0.012751
      dyz     :     0.001877
      dx2y2   :     0.022736
      dxy     :     0.037111

  4 O s       :     1.382307  s :     1.382307
      pz      :     1.483468  p :     4.408129
      px      :     1.585389
      py      :     1.339272
      dz2     :     0.010719  d :     0.106986
      dxz     :     0.009417
      dyz     :     0.017518
      dx2y2   :     0.031525
      dxy     :     0.037806

  5 H s       :     0.581775  s :     0.581775
      pz      :     0.080875  p :     0.287109
      px      :     0.076506
      py      :     0.129729

  6 H s       :     0.783060  s :     0.783060
      pz      :     0.058583  p :     0.142684
      px      :     0.057866
      py      :     0.026236

  7 H s       :     0.769549  s :     0.769549
      pz      :     0.042584  p :     0.141698
      px      :     0.069748
      py      :     0.029365

  8 H s       :     0.792812  s :     0.792812
      pz      :     0.036622  p :     0.159351
      px      :     0.071165
      py      :     0.051564

  9 H s       :     0.793837  s :     0.793837
      pz      :     0.058505  p :     0.157871
      px      :     0.054187
      py      :     0.045179

 10 H s       :     0.766235  s :     0.766235
      pz      :     0.020666  p :     0.124349
      px      :     0.027488
      py      :     0.076196


SPIN
  0 C s       :    -0.000595  s :    -0.000595
      pz      :    -0.011444  p :     0.005754
      px      :     0.001158
      py      :     0.016040
      dz2     :     0.004383  d :     0.064411
      dxz     :     0.008516
      dyz     :     0.025465
      dx2y2   :     0.019724
      dxy     :     0.006323

  1 C s       :     0.020527  s :     0.020527
      pz      :     0.033240  p :     0.763390
      px      :     0.103487
      py      :     0.626663
      dz2     :    -0.001048  d :    -0.006363
      dxz     :    -0.001055
      dyz     :    -0.000600
      dx2y2   :    -0.002019
      dxy     :    -0.001641

  2 C s       :    -0.000347  s :    -0.000347
      pz      :     0.000701  p :     0.002961
      px      :     0.000759
      py      :     0.001501
      dz2     :     0.000467  d :     0.003156
      dxz     :    -0.000026
      dyz     :     0.000048
      dx2y2   :     0.002735
      dxy     :    -0.000068

  3 O s       :     0.000273  s :     0.000273
      pz      :    -0.001014  p :     0.001190
      px      :     0.000418
      py      :     0.001786
      dz2     :    -0.000006  d :     0.000129
      dxz     :     0.000011
      dyz     :     0.000099
      dx2y2   :    -0.000014
      dxy     :     0.000040

  4 O s       :     0.010812  s :     0.010812
      pz      :     0.005559  p :     0.044569
      px      :     0.005821
      py      :     0.033188
      dz2     :     0.000092  d :     0.000705
      dxz     :     0.000010
      dyz     :     0.000135
      dx2y2   :     0.000763
      dxy     :    -0.000295

  5 H s       :     0.000016  s :     0.000016
      pz      :    -0.000076  p :    -0.000007
      px      :    -0.000017
      py      :     0.000086

  6 H s       :     0.000091  s :     0.000091
      pz      :    -0.000679  p :    -0.000927
      px      :    -0.000110
      py      :    -0.000138

  7 H s       :     0.018527  s :     0.018527
      pz      :     0.000576  p :     0.001903
      px      :     0.000451
      py      :     0.000877

  8 H s       :    -0.017274  s :    -0.017274
      pz      :     0.001983  p :     0.051467
      px      :     0.009874
      py      :     0.039611

  9 H s       :    -0.016358  s :    -0.016358
      pz      :     0.003865  p :     0.049225
      px      :     0.006720
      py      :     0.038640

 10 H s       :     0.002200  s :     0.002200
      pz      :     0.000134  p :     0.000564
      px      :     0.000179
      py      :     0.000251



                      *****************************
                      * MAYER POPULATION ANALYSIS *
                      *****************************

  NA   - Mulliken gross atomic population
  ZA   - Total nuclear charge
  QA   - Mulliken gross atomic charge
  VA   - Mayer's total valence
  BVA  - Mayer's bonded valence
  FA   - Mayer's free valence

  ATOM       NA         ZA         QA         VA         BVA        FA
  0 C      3.8807     4.0000     0.1193     3.8540     3.8477     0.0062
  1 C      3.9956     4.0000     0.0044     3.9277     3.1788     0.7489
  2 C      3.6446     4.0000     0.3554     4.0042     4.0040     0.0001
  3 O      6.0266     6.0000    -0.0266     2.4488     2.4488     0.0000
  4 O      6.1264     6.0000    -0.1264     2.3133     2.3111     0.0022
  5 H      0.7807     1.0000     0.2193     1.0474     1.0474     0.0000
  6 H      0.9079     1.0000     0.0921     1.0186     1.0186     0.0000
  7 H      0.8933     1.0000     0.1067     1.0235     1.0226     0.0009
  8 H      0.9193     1.0000     0.0807     1.0416     1.0403     0.0013
  9 H      0.9163     1.0000     0.0837     1.0382     1.0370     0.0012
 10 H      0.9088     1.0000     0.0912     1.0285     1.0285     0.0000

  Mayer bond orders larger than 0.100000
B(  0-C ,  1-C ) :   1.1345 B(  0-C ,  4-O ) :   0.6837 B(  0-C ,  6-H ) :   0.9919 
B(  0-C ,  7-H ) :   0.9869 B(  1-C ,  8-H ) :   1.0091 B(  1-C ,  9-H ) :   1.0078 
B(  2-C ,  3-O ) :   1.3672 B(  2-C ,  4-O ) :   1.5483 B(  2-C , 10-H ) :   1.0226 
B(  3-O ,  5-H ) :   0.9969 

-------
TIMINGS
-------

Total SCF time: 0 days 0 hours 0 min 10 sec 

Total time                  ....      10.659 sec
Sum of individual times     ....      10.622 sec  ( 99.7%)

SCF preparation             ....       0.431 sec  (  4.0%)
Fock matrix formation       ....       9.954 sec  ( 93.4%)
  Startup                   ....       0.004 sec  (  0.0% of F)
  Split-RI-J                ....       0.267 sec  (  2.7% of F)
  Chain of spheres X        ....       8.995 sec  ( 90.4% of F)
  XC integration            ....       0.675 sec  (  6.8% of F)
    Basis function eval.    ....       0.186 sec  ( 27.6% of XC)
    Density eval.           ....       0.156 sec  ( 23.1% of XC)
    XC-Functional eval.     ....       0.099 sec  ( 14.6% of XC)
    XC-Potential eval.      ....       0.209 sec  ( 30.9% of XC)
Diagonalization             ....       0.000 sec  (  0.0%)
Density matrix formation    ....       0.006 sec  (  0.1%)
Total Energy calculation    ....       0.006 sec  (  0.1%)
Population analysis         ....       0.184 sec  (  1.7%)
Orbital Transformation      ....       0.008 sec  (  0.1%)
Orbital Orthonormalization  ....       0.000 sec  (  0.0%)
DIIS solution               ....       0.010 sec  (  0.1%)
SOSCF solution              ....       0.024 sec  (  0.2%)
Finished LeanSCF after  10.8 sec

Maximum memory used throughout the entire LEANSCF-calculation: 18.4 MB


-------------------------------------------------------------------------------
                          DFT DISPERSION CORRECTION                            
                                                                               
                                DFTD4 V3.4.0                                   
-------------------------------------------------------------------------------
The wB97X-3c composite method is recognized
Using three-body term ABC
Active option DFTDOPT                   ...         5   

-------------------------   ----------------
Dispersion correction           -0.006762814
-------------------------   ----------------


-------------------------   --------------------
FINAL SINGLE POINT ENERGY       -52.465626300782
-------------------------   --------------------

                                *** OPTIMIZATION RUN DONE ***



           ************************************************************
           *        Program running with 4 parallel MPI-processes     *
           *              working on a common directory               *
           ************************************************************

------------------------------------------------------------------------------
                              ORCA PROPERTY CALCULATIONS
------------------------------------------------------------------------------

GBWName                                 ... orca.gbw
Number of atoms                         ...     11
Number of basis functions               ...     95
Max core memory                         ...   8000 MB

Electric properties:
Dipole moment                           ... YES
Quadrupole moment                       ...  NO
Static polarizability (Dipole/Dipole)   ...  NO
Static polarizability (Dipole/Quad.)    ...  NO
Static polarizability (Quad./Quad.)     ...  NO
Static polarizability (Velocity)        ...  NO

Atomic electric properties:
Dipole moment                           ...  NO
Quadrupole moment                       ...  NO
Static polarizability                   ...  NO

Choice of electric origin               ... Center of mass
Position of electric origin             ...     0.252157    -0.408447    -0.472912

General magnetic properties:
Magnetizability                         ...  NO

EPR properties:
g-Tensor (aka g-matrix)                 ...  NO
Zero-Field splitting spin-orbit         ...  NO
Zero-field splitting spin-spin          ...  NO
Hyperfine couplings                     ...  NO (   0 nuclei)
Quadrupole couplings                    ...  NO (   0 nuclei)
Contact density                         ...  NO (   0 nuclei)

NMR properties:
Chemical shifts                         ...  NO (   0 nuclei)
Spin-rotation constants                 ...  NO (   0 nuclei)
Spin-spin couplings                     ...  NO (   0 nuclei,    0 pairs)

Choice of magnetic origin               ... GIAO
Position of magnetic origin             ...     0.000000     0.000000     0.000000

Properties with geometric perturbations:
SCF Hessian                             ...  NO
IR spectrum                             ...  NO
VCD spectrum                            ...  NO
X-ray spectroscopy properties:
SCF XES/XAS/RIXS spectra                ...  NO


-------------
DIPOLE MOMENT
-------------

Method             : SCF
Type of density    : Electron Density
Multiplicity       :   2
Irrep              :   0
Energy             :   -52.4588634868585189 Eh
Relativity type    : 
Basis              : AO
                                X                 Y                 Z
Electronic contribution:     -0.395108040       2.469234107      -1.020246095
Nuclear contribution   :      1.020267815      -1.367416124       0.723303980
                        -----------------------------------------
Total Dipole Moment    :      0.625159776       1.101817983      -0.296942115
                        -----------------------------------------
Magnitude (a.u.)       :      1.301154192
Magnitude (Debye)      :      3.307271124



--------------------
Rotational spectrum 
--------------------
 
Rotational constants in cm-1:             0.331772             0.127077             0.105578 
Rotational constants in MHz :          9946.279616          3809.664418          3165.146262 

Dipole components along the rotational axes: 
x,y,z [a.u.] :    -1.277554     0.223984    -0.103390 
x,y,z [Debye]:    -3.247284     0.569321    -0.262796 

 

Dipole moment calculation done in   0.1 sec 

Maximum memory used throughout the entire PROP-calculation: 11.7 MB

--------------------------------
SUGGESTED CITATIONS FOR THIS RUN
--------------------------------

Below you find a list of papers that are relevant to this ORCA run
We neither can nor want to force you to cite these papers, but we appreciate if you do
You receive ORCA, which is the product of decades of hard work by many enthusiastic individuals, for free
The only thing we kindly ask in return is that you cite our papers,
We deeply appreciate it, if you show your appreciation for ORCA by not just citing the generic ORCA reference.

Please note that relegating all ORCA citations to the supporting information does *not* help us.
SI sections are not indexed - citations you put there will not count into any citation statistics
But we need these citations in order to attract the funding resources that allow us to do what we are doing

Therefore, if you are a happy ORCA user, please consider citing a few of the papers listed below in the main body of your paper

In addition to the list printed below, the program has created the file orca.bibtex that contains the list in bibtex format
You can import this file easily into all common literature databanks and citation aid programs


List of essential papers. We consider these as the minimum necessary citations

  1. Neese,F.
     Software update: the ORCA program system, version 5.0
     WIRES Comput. Molec. Sci., 2022 12(1)e1606
     doi.org/10.1002/wcms.1606
  2. Mueller,M.; Hansen,A.; Grimme,S.
     wB97X-3c: A composite range-separated hybrid DFT method with a molecule-optimized polarized valence double-zeta basis set
     J. Chem. Phys., 2023 158 014103
     doi.org/10.1063/5.0133026

List of papers to cite with high priority. The work reported in these papers was absolutely
necessary for this run to complete.
Our perspective: the developers of density functionals and basis sets usually get cited in chemistry papers
Good! But without the algorithms to do something with them, the functionals or basis sets would not do anything.
Hence, in our opinion, the algorithm design and method developments papers are equally worthy of getting cited

  1. Neese,F.
     An improvement of the resolution of the identity approximation for the formation of the Coulomb matrix
     J. Comp. Chem., 2003 24(14)1740-1747
     doi.org/10.1002/jcc.10318
  2. Neese,F.; Wennmohs,F.; Hansen,A.; Becker,U.
     Efficient, approximate and parallel Hartree-Fock and hybrid DFT calculations. A 'chain-of-spheres' algorithm for the Hartree-Fock exchange
     Chem. Phys., 2009 356(1-3)98-109
     doi.org/10.1016/j.chemphys.2008.10.036
  3. Helmich-Paris,B.; de Souza,B.; Neese,F.; Izsák,R.
     An improved chain of spheres for exchange algorithm
     J. Chem. Phys., 2021 155 104109
     doi.org/doi: 10.1063/5.0058766.
  4. Neese,F.
     The SHARK Integral Generation and Digestion System
     J. Comp. Chem., 2022  1-16
     doi.org/10.1002/jcc.26942
  5. Caldeweyher,E.; Bannwarth,C.; Grimme,S.
     Extension of the D3 dispersion coefficient model
     J. Chem. Phys., 2017 147 034112
     doi.org/10.1063/1.4993215
  6. Caldeweyher,E.; Ehlert,S.; Hansen,A.; Neugebauer,H.; Spicher,S.; Bannwarth,C.; Grimme,S.
     A generally applicable atomic-charge dependent London dispersion correction
     J. Chem. Phys., 2019 150 154122
     doi.org/10.1063/1.5090222
  7. Caldeweyher,E.; Mewes,J.; Ehlert,S.; Grimme,S.
     Extension and evaluation of the D4 London-dispersion model for periodic systems
     Phys. Chem. Chem. Phys., 2020 22(16)8499-8512
     doi.org/10.1039/D0CP00502A
  8. Wittmann,L.; Gordiy,I.; Friede,M.; Helmich-Paris,B.; Grimme,S.; Hansen,A.; Bursch,M.
     Extension of the D3 and D4 London Dispersion Corrections to the full Actinides Series
     Phys. Chem. Chem. Phys., 2024 26(32)21379-21394
     doi.org/https://doi.org/10.1039/D4CP01514B 

List of suggested additional citations. These are papers that are important in the 'surrounding' of 
of this run, or papers that preceded the highly important papers. If you like your results we are grateful for a citation.

  1. Izsak,R.; Neese,F.
     An overlap fitted chain of spheres exchange method
     J. Chem. Phys., 2011 135 144105
     doi.org/10.1063/1.3646921
  2. Izsak,R.; Hansen,A.; Neese,F.
     The resolution of identity and chain of spheres approximations for the LPNO-CCSD singles Fock term
     Molec. Phys., 2012 110 2413-2417
     doi.org/10.1080/00268976.2012.687466
  3. Neese,F.
     The ORCA program system
     WIRES Comput. Molec. Sci., 2012 2(1)73-78
     doi.org/10.1002/wcms.81
  4. Izsak,R.; Neese,F.; Klopper,W.
     Robust fitting techniques in the chain of spheres approximation to the Fock exchange: The role of the complementary space
     J. Chem. Phys., 2013 139 
     doi.org/10.1063/1.4819264
  5. Neese,F.
     Software update: the ORCA program system, version 4.0
     WIRES Comput. Molec. Sci., 2018 8(1)1-6
     doi.org/10.1002/wcms.1327
  6. Neese,F.; Wennmohs,F.; Becker,U.; Riplinger,C.
     The ORCA quantum chemistry program package
     J. Chem. Phys., 2020 152 Art. No. L224108
     doi.org/10.1063/5.0004608

List of optional additional citations

  1. Neese,F.
     Approximate second-order SCF convergence for spin unrestricted wavefunctions
     Chem. Phys. Lett., 2000 325(1-3)93-98
     doi.org/10.1016/s0009-2614(00)00662-x

Timings for individual modules:

Sum of individual times          ...     1350.723 sec (=  22.512 min)
Startup calculation              ...       63.401 sec (=   1.057 min)   4.7 %
SCF iterations                   ...      870.500 sec (=  14.508 min)  64.4 %
Property calculations            ...        0.630 sec (=   0.011 min)   0.0 %
SCF Gradient evaluation          ...      415.918 sec (=   6.932 min)  30.8 %
Geometry relaxation              ...        0.273 sec (=   0.005 min)   0.0 %
                             ****ORCA TERMINATED NORMALLY****
TOTAL RUN TIME: 0 days 0 hours 22 minutes 59 seconds 626 msec
